<VTKFile type="UnstructuredGrid" version="0.1" byte_order="LittleEndian">
<UnstructuredGrid>
<Piece NumberOfPoints="64" NumberOfCells="16">
<Points>
<DataArray type="Float32" NumberOfComponents="3" format="ascii">
0 0 0 0.25 0 0 0.25 0.25 0 0 0.25 0 0.25 0 0 0.5 0 0 0.5 0.25 0 0.25 0.25 0 0.5 0 0 0.75 0 0 0.75 0.25 0 0.5 0.25 0 0.75 0 0 1 0 0 1 0.25 0 0.75 0.25 0 0 0.25 0 0.25 0.25 0 0.25 0.5 0 0 0.5 0 0.25 0.25 0 0.5 0.25 0 0.5 0.5 0 0.25 0.5 0 0.5 0.25 0 0.75 0.25 0 0.75 0.5 0 0.5 0.5 0 0.75 0.25 0 1 0.25 0 1 0.5 0 0.75 0.5 0 0 0.5 0 0.25 0.5 0 0.25 0.75 0 0 0.75 0 0.25 0.5 0 0.5 0.5 0 0.5 0.75 0 0.25 0.75 0 0.5 0.5 0 0.75 0.5 0 0.75 0.75 0 0.5 0.75 0 0.75 0.5 0 1 0.5 0 1 0.75 0 0.75 0.75 0 0 0.75 0 0.25 0.75 0 0.25 1 0 0 1 0 0.25 0.75 0 0.5 0.75 0 0.5 1 0 0.25 1 0 0.5 0.75 0 0.75 0.75 0 0.75 1 0 0.5 1 0 0.75 0.75 0 1 0.75 0 1 1 0 0.75 1 0 </DataArray>
</Points>
<Cells>
<DataArray type="Int32" Name="connectivity" format="ascii">
0 1 2 3 4 5 6 7 8 9 10 11 12 13 14 15 16 17 18 19 20 21 22 23 24 25 26 27 28 29 30 31 32 33 34 35 36 37 38 39 40 41 42 43 44 45 46 47 48 49 50 51 52 53 54 55 56 57 58 59 60 61 62 63 </DataArray>
<DataArray type="Int32" Name="offsets" format="ascii">
4 8 12 16 20 24 28 32 36 40 44 48 52 56 60 64 </DataArray>
<DataArray type="UInt8" Name="types" format="ascii">
9 9 9 9 9 9 9 9 9 9 9 9 9 9 9 9 </DataArray>
</Cells>
<CellData Scalars="number_density">
<DataArray type="Float32" Name="number_density" format="ascii">
1.00832e+13 9.904e+12 9.9792e+12 9.7552e+12 9.928e+12 1.01376e+13 1.03616e+13 1.0128e+13 9.8448e+12 9.9888e+12 1.02096e+13 9.872e+12 9.9408e+12 9.9552e+12 9.9376e+12 9.9744e+12 </DataArray>
<DataArray type="Float32" Name="temperature" format="ascii">
694.745 709.325 701.776 705.911 709.111 721.31 723.756 715.471 703.745 724.183 722.001 706.338 700.718 697.074 715.812 683.979 </DataArray>
<DataArray type="Float32" Name="velocity" format="ascii">
94.4076 108.296 91.9944 78.4451 112.14 97.2631 70.0827 84.0378 104.273 70.3434 40.6704 90.5503 87.4699 84.8841 80.6739 71.044 </DataArray>
</CellData>
<PointData Scalars="number_density">
<DataArray type="Float32" Name="number_density" format="ascii">
1.00832e+13 9.9936e+12 1.00132e+13 1.00056e+13 9.9936e+12 9.9416e+12 1.00956e+13 1.00132e+13 9.9416e+12 9.8672e+12 1.0056e+13 1.00956e+13 9.8672e+12 9.7552e+12 9.9416e+12 1.0056e+13 1.00056e+13 1.00132e+13 9.9748e+12 9.8864e+12 1.00132e+13 1.00956e+13 1.01744e+13 9.9748e+12 1.00956e+13 1.0056e+13 1.01428e+13 1.01744e+13 1.0056e+13 9.9416e+12 1e+13 1.01428e+13 9.8864e+12 9.9748e+12 9.9324e+12 9.8928e+12 9.9748e+12 1.01744e+13 1.00228e+13 9.9324e+12 1.01744e+13 1.01428e+13 9.9984e+12 1.00228e+13 1.01428e+13 1e+13 9.9232e+12 9.9984e+12 9.8928e+12 9.9324e+12 9.948e+12 9.9408e+12 9.9324e+12 1.00228e+13 9.9464e+12 9.948e+12 1.00228e+13 9.9984e+12 9.956e+12 9.9464e+12 9.9984e+12 9.9232e+12 9.9744e+12 9.956e+12 </DataArray>
<DataArray type="Float32" Name="temperature" format="ascii">
694.745 702.035 708.623 701.928 702.035 705.55 714.042 708.623 705.55 703.843 711.728 714.042 703.843 705.911 710.691 711.728 701.928 708.623 714.588 706.428 708.623 714.042 722.813 714.588 714.042 711.728 716.892 722.813 711.728 710.691 710.905 716.892 706.428 714.588 706.43 702.232 714.588 722.813 714.768 706.43 722.813 716.892 707.033 714.768 716.892 710.905 695.159 707.033 702.232 706.43 698.896 700.718 706.43 714.768 706.443 698.896 714.768 707.033 699.895 706.443 707.033 695.159 683.979 699.895 </DataArray>
<DataArray type="Float32" Name="velocity" format="ascii">
94.4076 99.2806 98.8777 101.385 99.2806 95.1266 80.4714 98.8777 95.1266 83.1041 75.6476 80.4714 83.1041 78.4451 78.22 75.6476 101.385 98.8777 86.4516 103.525 98.8777 80.4714 25.3108 86.4516 80.4714 75.6476 59.5648 25.3108 75.6476 78.22 82.9942 59.5648 103.525 86.4516 83.2787 95.0046 86.4516 25.3108 51.127 83.2787 25.3108 59.5648 65.6269 51.127 59.5648 82.9942 78.6721 65.6269 95.0046 83.2787 83.3622 87.4699 83.2787 51.127 73.7323 83.3622 51.127 65.6269 73.117 73.7323 65.6269 78.6721 71.044 73.117 </DataArray>
</PointData>
</Piece>
</UnstructuredGrid>
</VTKFile>
