<VTKFile type="UnstructuredGrid" version="0.1" byte_order="LittleEndian">
<UnstructuredGrid>
<Piece NumberOfPoints="64" NumberOfCells="16">
<Points>
<DataArray type="Float32" NumberOfComponents="3" format="ascii">
0 0 0 0.25 0 0 0.25 0.25 0 0 0.25 0 0.25 0 0 0.5 0 0 0.5 0.25 0 0.25 0.25 0 0.5 0 0 0.75 0 0 0.75 0.25 0 0.5 0.25 0 0.75 0 0 1 0 0 1 0.25 0 0.75 0.25 0 0 0.25 0 0.25 0.25 0 0.25 0.5 0 0 0.5 0 0.25 0.25 0 0.5 0.25 0 0.5 0.5 0 0.25 0.5 0 0.5 0.25 0 0.75 0.25 0 0.75 0.5 0 0.5 0.5 0 0.75 0.25 0 1 0.25 0 1 0.5 0 0.75 0.5 0 0 0.5 0 0.25 0.5 0 0.25 0.75 0 0 0.75 0 0.25 0.5 0 0.5 0.5 0 0.5 0.75 0 0.25 0.75 0 0.5 0.5 0 0.75 0.5 0 0.75 0.75 0 0.5 0.75 0 0.75 0.5 0 1 0.5 0 1 0.75 0 0.75 0.75 0 0 0.75 0 0.25 0.75 0 0.25 1 0 0 1 0 0.25 0.75 0 0.5 0.75 0 0.5 1 0 0.25 1 0 0.5 0.75 0 0.75 0.75 0 0.75 1 0 0.5 1 0 0.75 0.75 0 1 0.75 0 1 1 0 0.75 1 0 </DataArray>
</Points>
<Cells>
<DataArray type="Int32" Name="connectivity" format="ascii">
0 1 2 3 4 5 6 7 8 9 10 11 12 13 14 15 16 17 18 19 20 21 22 23 24 25 26 27 28 29 30 31 32 33 34 35 36 37 38 39 40 41 42 43 44 45 46 47 48 49 50 51 52 53 54 55 56 57 58 59 60 61 62 63 </DataArray>
<DataArray type="Int32" Name="offsets" format="ascii">
4 8 12 16 20 24 28 32 36 40 44 48 52 56 60 64 </DataArray>
<DataArray type="UInt8" Name="types" format="ascii">
9 9 9 9 9 9 9 9 9 9 9 9 9 9 9 9 </DataArray>
</Cells>
<CellData Scalars="number_density">
<DataArray type="Float32" Name="number_density" format="ascii">
7.8816e+12 9.1312e+12 9.2112e+12 8.0784e+12 8.5296e+12 1.29376e+13 1.37344e+13 9.448e+12 8.7296e+12 1.34e+13 1.39328e+13 9.1808e+12 8.0624e+12 9.664e+12 9.7056e+12 8.3728e+12 </DataArray>
<DataArray type="Float32" Name="temperature" format="ascii">
753.006 928.77 906.3 720.379 945.738 1296.28 1268.31 876.003 969.174 1339.87 1290.58 888.809 754.669 935.244 919.48 708.2 </DataArray>
<DataArray type="Float32" Name="velocity" format="ascii">
433.641 503.085 446.146 358.137 547.286 521.358 364.079 431.409 512.056 406.355 242.398 428.554 390.838 381.595 366.06 354.526 </DataArray>
</CellData>
<PointData Scalars="number_density">
<DataArray type="Float32" Name="number_density" format="ascii">
7.8816e+12 8.5064e+12 9.62e+12 8.2056e+12 8.5064e+12 9.1712e+12 1.12536e+13 9.62e+12 9.1712e+12 8.6448e+12 1.0118e+13 1.12536e+13 8.6448e+12 8.0784e+12 8.7632e+12 1.0118e+13 8.2056e+12 9.62e+12 1.08992e+13 8.6296e+12 9.62e+12 1.12536e+13 1.35012e+13 1.08992e+13 1.12536e+13 1.0118e+13 1.1574e+13 1.35012e+13 1.0118e+13 8.7632e+12 9.3144e+12 1.1574e+13 8.6296e+12 1.08992e+13 9.964e+12 8.396e+12 1.08992e+13 1.35012e+13 1.16756e+13 9.964e+12 1.35012e+13 1.1574e+13 1.0298e+13 1.16756e+13 1.1574e+13 9.3144e+12 8.7768e+12 1.0298e+13 8.396e+12 9.964e+12 8.8632e+12 8.0624e+12 9.964e+12 1.16756e+13 9.6848e+12 8.8632e+12 1.16756e+13 1.0298e+13 9.0392e+12 9.6848e+12 1.0298e+13 8.7768e+12 8.3728e+12 9.0392e+12 </DataArray>
<DataArray type="Float32" Name="temperature" format="ascii">
753.006 840.888 980.949 849.372 840.888 917.535 1099.91 980.949 917.535 813.339 942.747 1099.91 813.339 720.379 798.191 942.747 849.372 980.949 1137.77 957.456 980.949 1099.91 1298.76 1137.77 1099.91 942.747 1080.92 1298.76 942.747 798.191 882.406 1080.92 957.456 1137.77 999.74 861.921 1137.77 1298.76 1121.29 999.74 1298.76 1080.92 951.767 1121.29 1080.92 882.406 798.505 951.767 861.921 999.74 844.956 754.669 999.74 1121.29 927.362 844.956 1121.29 951.767 813.84 927.362 951.767 798.505 708.2 813.84 </DataArray>
<DataArray type="Float32" Name="velocity" format="ascii">
433.641 462.359 487.767 484.165 462.359 444.666 397.706 487.767 444.666 389.127 375.919 397.706 389.127 358.137 387.026 375.919 484.165 487.767 454.992 507.526 487.767 397.706 146.965 454.992 397.706 375.919 297.311 146.965 375.919 387.026 401.522 297.311 507.526 454.992 405.876 444.363 454.992 146.965 237.891 405.876 146.965 297.311 326.735 237.891 297.311 401.522 382.06 326.735 444.363 405.876 378.383 390.838 405.876 237.891 324.756 378.383 237.891 326.735 349.798 324.756 326.735 382.06 354.526 349.798 </DataArray>
</PointData>
</Piece>
</UnstructuredGrid>
</VTKFile>
