<VTKFile type="UnstructuredGrid" version="0.1" byte_order="LittleEndian">
<UnstructuredGrid>
<Piece NumberOfPoints="64" NumberOfCells="16">
<Points>
<DataArray type="Float32" NumberOfComponents="3" format="ascii">
0 0 0 0.25 0 0 0.25 0.25 0 0 0.25 0 0.25 0 0 0.5 0 0 0.5 0.25 0 0.25 0.25 0 0.5 0 0 0.75 0 0 0.75 0.25 0 0.5 0.25 0 0.75 0 0 1 0 0 1 0.25 0 0.75 0.25 0 0 0.25 0 0.25 0.25 0 0.25 0.5 0 0 0.5 0 0.25 0.25 0 0.5 0.25 0 0.5 0.5 0 0.25 0.5 0 0.5 0.25 0 0.75 0.25 0 0.75 0.5 0 0.5 0.5 0 0.75 0.25 0 1 0.25 0 1 0.5 0 0.75 0.5 0 0 0.5 0 0.25 0.5 0 0.25 0.75 0 0 0.75 0 0.25 0.5 0 0.5 0.5 0 0.5 0.75 0 0.25 0.75 0 0.5 0.5 0 0.75 0.5 0 0.75 0.75 0 0.5 0.75 0 0.75 0.5 0 1 0.5 0 1 0.75 0 0.75 0.75 0 0 0.75 0 0.25 0.75 0 0.25 1 0 0 1 0 0.25 0.75 0 0.5 0.75 0 0.5 1 0 0.25 1 0 0.5 0.75 0 0.75 0.75 0 0.75 1 0 0.5 1 0 0.75 0.75 0 1 0.75 0 1 1 0 0.75 1 0 </DataArray>
</Points>
<Cells>
<DataArray type="Int32" Name="connectivity" format="ascii">
0 1 2 3 4 5 6 7 8 9 10 11 12 13 14 15 16 17 18 19 20 21 22 23 24 25 26 27 28 29 30 31 32 33 34 35 36 37 38 39 40 41 42 43 44 45 46 47 48 49 50 51 52 53 54 55 56 57 58 59 60 61 62 63 </DataArray>
<DataArray type="Int32" Name="offsets" format="ascii">
4 8 12 16 20 24 28 32 36 40 44 48 52 56 60 64 </DataArray>
<DataArray type="UInt8" Name="types" format="ascii">
9 9 9 9 9 9 9 9 9 9 9 9 9 9 9 9 </DataArray>
</Cells>
<CellData Scalars="number_density">
<DataArray type="Float32" Name="number_density" format="ascii">
3.8448e+12 6.28e+12 6.4672e+12 4.6224e+12 4.8992e+12 1.82288e+13 2.31456e+13 7.1264e+12 5.1344e+12 2.14592e+13 2.64048e+13 6.6688e+12 4.3744e+12 8.1456e+12 8.4096e+12 4.7888e+12 </DataArray>
<DataArray type="Float32" Name="temperature" format="ascii">
863.768 1316.91 1395.77 792.332 1429.85 2424.03 2480.25 1244.02 1453.78 2584.73 2633.85 1312.88 876.061 1435.65 1391.9 799.231 </DataArray>
<DataArray type="Float32" Name="velocity" format="ascii">
665.549 838.058 666.688 551.217 847.741 867.817 578.444 699.332 763.039 618.857 268.798 643.096 565.235 593.975 567.02 554.488 </DataArray>
</CellData>
<PointData Scalars="number_density">
<DataArray type="Float32" Name="number_density" format="ascii">
3.8448e+12 5.0624e+12 8.3132e+12 4.372e+12 5.0624e+12 6.3736e+12 1.35304e+13 8.3132e+12 6.3736e+12 5.5448e+12 1.03404e+13 1.35304e+13 5.5448e+12 4.6224e+12 5.8744e+12 1.03404e+13 4.372e+12 8.3132e+12 1.24304e+13 5.0168e+12 8.3132e+12 1.35304e+13 2.23096e+13 1.24304e+13 1.35304e+13 1.03404e+13 1.58364e+13 2.23096e+13 1.03404e+13 5.8744e+12 6.8976e+12 1.58364e+13 5.0168e+12 1.24304e+13 9.7784e+12 4.7544e+12 1.24304e+13 2.23096e+13 1.61048e+13 9.7784e+12 2.23096e+13 1.58364e+13 1.1568e+13 1.61048e+13 1.58364e+13 6.8976e+12 5.7288e+12 1.1568e+13 4.7544e+12 9.7784e+12 6.26e+12 4.3744e+12 9.7784e+12 1.61048e+13 8.2776e+12 6.26e+12 1.61048e+13 1.1568e+13 6.5992e+12 8.2776e+12 1.1568e+13 5.7288e+12 4.7888e+12 6.5992e+12 </DataArray>
<DataArray type="Float32" Name="temperature" format="ascii">
863.768 1090.34 1508.64 1146.81 1090.34 1356.34 1904.24 1508.64 1356.34 1094.05 1478.09 1904.24 1094.05 792.332 1018.18 1478.09 1146.81 1508.64 1973.1 1441.81 1508.64 1904.24 2530.72 1973.1 1904.24 1478.09 1917.75 2530.72 1478.09 1018.18 1278.45 1917.75 1441.81 1973.1 1587.56 1164.92 1973.1 2530.72 2011.53 1587.56 2530.72 1917.75 1534.46 2011.53 1917.75 1278.45 1056.05 1534.46 1164.92 1587.56 1155.85 876.061 1587.56 2011.53 1413.78 1155.85 2011.53 1534.46 1095.57 1413.78 1534.46 1056.05 799.231 1095.57 </DataArray>
<DataArray type="Float32" Name="velocity" format="ascii">
665.549 749.601 796.417 751.399 749.601 675.905 640.306 796.417 675.905 592.014 594.209 640.306 592.014 551.217 620.867 594.209 751.399 796.417 701.506 746.121 796.417 640.306 297.835 701.506 640.306 594.209 420.666 297.835 594.209 620.867 596.551 420.666 746.121 701.506 619.917 658.566 701.506 297.835 326.55 619.917 297.835 420.666 489.202 326.55 420.666 596.551 588.234 489.202 658.566 619.917 573.318 565.235 619.917 326.55 457.985 573.318 326.55 489.202 553.57 457.985 489.202 588.234 554.488 553.57 </DataArray>
</PointData>
</Piece>
</UnstructuredGrid>
</VTKFile>
