<VTKFile type="UnstructuredGrid" version="0.1" byte_order="LittleEndian">
<UnstructuredGrid>
<Piece NumberOfPoints="64" NumberOfCells="16">
<Points>
<DataArray type="Float32" NumberOfComponents="3" format="ascii">
0 0 0 0.25 0 0 0.25 0.25 0 0 0.25 0 0.25 0 0 0.5 0 0 0.5 0.25 0 0.25 0.25 0 0.5 0 0 0.75 0 0 0.75 0.25 0 0.5 0.25 0 0.75 0 0 1 0 0 1 0.25 0 0.75 0.25 0 0 0.25 0 0.25 0.25 0 0.25 0.5 0 0 0.5 0 0.25 0.25 0 0.5 0.25 0 0.5 0.5 0 0.25 0.5 0 0.5 0.25 0 0.75 0.25 0 0.75 0.5 0 0.5 0.5 0 0.75 0.25 0 1 0.25 0 1 0.5 0 0.75 0.5 0 0 0.5 0 0.25 0.5 0 0.25 0.75 0 0 0.75 0 0.25 0.5 0 0.5 0.5 0 0.5 0.75 0 0.25 0.75 0 0.5 0.5 0 0.75 0.5 0 0.75 0.75 0 0.5 0.75 0 0.75 0.5 0 1 0.5 0 1 0.75 0 0.75 0.75 0 0 0.75 0 0.25 0.75 0 0.25 1 0 0 1 0 0.25 0.75 0 0.5 0.75 0 0.5 1 0 0.25 1 0 0.5 0.75 0 0.75 0.75 0 0.75 1 0 0.5 1 0 0.75 0.75 0 1 0.75 0 1 1 0 0.75 1 0 </DataArray>
</Points>
<Cells>
<DataArray type="Int32" Name="connectivity" format="ascii">
0 1 2 3 4 5 6 7 8 9 10 11 12 13 14 15 16 17 18 19 20 21 22 23 24 25 26 27 28 29 30 31 32 33 34 35 36 37 38 39 40 41 42 43 44 45 46 47 48 49 50 51 52 53 54 55 56 57 58 59 60 61 62 63 </DataArray>
<DataArray type="Int32" Name="offsets" format="ascii">
4 8 12 16 20 24 28 32 36 40 44 48 52 56 60 64 </DataArray>
<DataArray type="UInt8" Name="types" format="ascii">
9 9 9 9 9 9 9 9 9 9 9 9 9 9 9 9 </DataArray>
</Cells>
<CellData Scalars="number_density">
<DataArray type="Float32" Name="number_density" format="ascii">
9.5632e+12 9.712e+12 9.9728e+12 9.2784e+12 9.6688e+12 1.07088e+13 1.10064e+13 1.00112e+13 9.6496e+12 1.07904e+13 1.09552e+13 9.8336e+12 9.488e+12 9.9056e+12 9.8896e+12 9.5664e+12 </DataArray>
<DataArray type="Float32" Name="temperature" format="ascii">
704.222 761.113 760.919 699.079 772.338 858.412 848.16 752.557 758.439 871.078 856.045 750.885 708.827 757.081 756.764 687.822 </DataArray>
<DataArray type="Float32" Name="velocity" format="ascii">
237.708 265.472 243.251 194.814 291.692 257.217 180.6 226.197 277.465 192.375 119.228 232.53 217.291 213.355 197.39 185.514 </DataArray>
</CellData>
<PointData Scalars="number_density">
<DataArray type="Float32" Name="number_density" format="ascii">
9.5632e+12 9.6376e+12 9.9132e+12 9.616e+12 9.6376e+12 9.8424e+12 1.035e+13 9.9132e+12 9.8424e+12 9.6256e+12 1.00672e+13 1.035e+13 9.6256e+12 9.2784e+12 9.6448e+12 1.00672e+13 9.616e+12 9.9132e+12 1.02044e+13 9.6592e+12 9.9132e+12 1.035e+13 1.08652e+13 1.02044e+13 1.035e+13 1.00672e+13 1.04516e+13 1.08652e+13 1.00672e+13 9.6448e+12 9.9224e+12 1.04516e+13 9.6592e+12 1.02044e+13 9.9584e+12 9.5688e+12 1.02044e+13 1.08652e+13 1.03852e+13 9.9584e+12 1.08652e+13 1.04516e+13 1.00612e+13 1.03852e+13 1.04516e+13 9.9224e+12 9.7e+12 1.00612e+13 9.5688e+12 9.9584e+12 9.6968e+12 9.488e+12 9.9584e+12 1.03852e+13 9.8976e+12 9.6968e+12 1.03852e+13 1.00612e+13 9.728e+12 9.8976e+12 1.00612e+13 9.7e+12 9.5664e+12 9.728e+12 </DataArray>
<DataArray type="Float32" Name="temperature" format="ascii">
704.222 732.668 774.021 738.28 732.668 761.016 807.151 774.021 761.016 729.999 765.179 807.151 729.999 699.079 725.818 765.179 738.28 774.021 815.067 765.388 774.021 807.151 858.424 815.067 807.151 765.179 801.912 858.424 765.179 725.818 751.721 801.912 765.388 815.067 773.856 733.633 815.067 858.424 810.242 773.856 858.424 801.912 762.879 810.242 801.912 751.721 719.354 762.879 733.633 773.856 732.954 708.827 773.856 810.242 756.922 732.954 810.242 762.879 722.293 756.922 762.879 719.354 687.822 722.293 </DataArray>
<DataArray type="Float32" Name="velocity" format="ascii">
237.708 247.23 253.861 260.557 247.23 241.158 206.711 253.861 241.158 211.395 196.636 206.711 211.395 194.814 205.085 196.636 260.557 253.861 232.394 274.526 253.861 206.711 67.4763 232.394 206.711 196.636 157.629 67.4763 196.636 205.085 217.167 157.629 274.526 232.394 214.526 243.098 232.394 67.4763 129.477 214.526 67.4763 157.629 170.914 129.477 157.629 217.167 203.241 170.914 243.098 214.526 209.74 217.291 214.526 129.477 183.014 209.74 129.477 170.914 185.232 183.014 170.914 203.241 185.514 185.232 </DataArray>
</PointData>
</Piece>
</UnstructuredGrid>
</VTKFile>
