<VTKFile type="UnstructuredGrid" version="0.1" byte_order="LittleEndian">
<UnstructuredGrid>
<Piece NumberOfPoints="64" NumberOfCells="16">
<Points>
<DataArray type="Float32" NumberOfComponents="3" format="ascii">
0 0 0 0.25 0 0 0.25 0.25 0 0 0.25 0 0.25 0 0 0.5 0 0 0.5 0.25 0 0.25 0.25 0 0.5 0 0 0.75 0 0 0.75 0.25 0 0.5 0.25 0 0.75 0 0 1 0 0 1 0.25 0 0.75 0.25 0 0 0.25 0 0.25 0.25 0 0.25 0.5 0 0 0.5 0 0.25 0.25 0 0.5 0.25 0 0.5 0.5 0 0.25 0.5 0 0.5 0.25 0 0.75 0.25 0 0.75 0.5 0 0.5 0.5 0 0.75 0.25 0 1 0.25 0 1 0.5 0 0.75 0.5 0 0 0.5 0 0.25 0.5 0 0.25 0.75 0 0 0.75 0 0.25 0.5 0 0.5 0.5 0 0.5 0.75 0 0.25 0.75 0 0.5 0.5 0 0.75 0.5 0 0.75 0.75 0 0.5 0.75 0 0.75 0.5 0 1 0.5 0 1 0.75 0 0.75 0.75 0 0 0.75 0 0.25 0.75 0 0.25 1 0 0 1 0 0.25 0.75 0 0.5 0.75 0 0.5 1 0 0.25 1 0 0.5 0.75 0 0.75 0.75 0 0.75 1 0 0.5 1 0 0.75 0.75 0 1 0.75 0 1 1 0 0.75 1 0 </DataArray>
</Points>
<Cells>
<DataArray type="Int32" Name="connectivity" format="ascii">
0 1 2 3 4 5 6 7 8 9 10 11 12 13 14 15 16 17 18 19 20 21 22 23 24 25 26 27 28 29 30 31 32 33 34 35 36 37 38 39 40 41 42 43 44 45 46 47 48 49 50 51 52 53 54 55 56 57 58 59 60 61 62 63 </DataArray>
<DataArray type="Int32" Name="offsets" format="ascii">
4 8 12 16 20 24 28 32 36 40 44 48 52 56 60 64 </DataArray>
<DataArray type="UInt8" Name="types" format="ascii">
9 9 9 9 9 9 9 9 9 9 9 9 9 9 9 9 </DataArray>
</Cells>
<CellData Scalars="number_density">
<DataArray type="Float32" Name="number_density" format="ascii">
1.00048e+13 9.8704e+12 9.9984e+12 9.704e+12 9.8896e+12 1.01968e+13 1.04416e+13 1.01024e+13 9.8048e+12 1.01312e+13 1.02848e+13 9.8944e+12 9.8768e+12 9.9392e+12 9.9312e+12 9.9296e+12 </DataArray>
<DataArray type="Float32" Name="temperature" format="ascii">
695.23 713.253 710.687 703.126 719.001 738.049 741.436 720.71 709.273 745.147 739.306 713.791 700.886 705.946 720.255 683.594 </DataArray>
<DataArray type="Float32" Name="velocity" format="ascii">
124.63 139.398 122.124 103.03 148.782 127.855 92.2998 114.263 139.138 94.5581 54.9405 119.864 114.601 111.939 105.747 94.9114 </DataArray>
</CellData>
<PointData Scalars="number_density">
<DataArray type="Float32" Name="number_density" format="ascii">
1.00048e+13 9.9376e+12 9.9904e+12 9.9472e+12 9.9376e+12 9.9344e+12 1.01268e+13 9.9904e+12 9.9344e+12 9.8512e+12 1.00616e+13 1.01268e+13 9.8512e+12 9.704e+12 9.9032e+12 1.00616e+13 9.9472e+12 9.9904e+12 1.00056e+13 9.8472e+12 9.9904e+12 1.01268e+13 1.02636e+13 1.00056e+13 1.01268e+13 1.00616e+13 1.01808e+13 1.02636e+13 1.00616e+13 9.9032e+12 9.9984e+12 1.01808e+13 9.8472e+12 1.00056e+13 9.938e+12 9.8408e+12 1.00056e+13 1.02636e+13 1.00716e+13 9.938e+12 1.02636e+13 1.01808e+13 1.001e+13 1.00716e+13 1.01808e+13 9.9984e+12 9.912e+12 1.001e+13 9.8408e+12 9.938e+12 9.908e+12 9.8768e+12 9.938e+12 1.00716e+13 9.9352e+12 9.908e+12 1.00716e+13 1.001e+13 9.9304e+12 9.9352e+12 1.001e+13 9.912e+12 9.9296e+12 9.9304e+12 </DataArray>
<DataArray type="Float32" Name="temperature" format="ascii">
695.23 704.242 716.383 707.116 704.242 711.97 725.856 716.383 711.97 706.907 718.99 725.856 706.907 703.126 711.918 718.99 707.116 716.383 727.867 714.137 716.383 725.856 740.984 727.867 725.856 718.99 728.811 740.984 718.99 711.918 717.25 728.811 714.137 727.867 715.313 705.079 727.867 740.984 727.663 715.313 740.984 728.811 714.236 727.663 728.811 717.25 698.692 714.236 705.079 715.313 703.416 700.886 715.313 727.663 713.1 703.416 727.663 714.236 701.924 713.1 714.236 698.692 683.594 701.924 </DataArray>
<DataArray type="Float32" Name="velocity" format="ascii">
124.63 129.009 129.826 134.611 129.009 124.459 105.51 129.826 124.459 109.26 100.513 105.51 109.26 103.03 105.194 100.513 134.611 129.826 116.026 138.535 129.826 105.51 34.1104 116.026 105.51 100.513 79.5134 34.1104 100.513 105.194 111.024 79.5134 138.535 116.026 109.9 125.107 116.026 34.1104 66.9892 109.9 34.1104 79.5134 87.2341 66.9892 79.5134 111.024 104.483 87.2341 125.107 109.9 109.961 114.601 109.9 66.9892 97.0769 109.961 66.9892 87.2341 96.9855 97.0769 87.2341 104.483 94.9114 96.9855 </DataArray>
</PointData>
</Piece>
</UnstructuredGrid>
</VTKFile>
