<VTKFile type="UnstructuredGrid" version="0.1" byte_order="LittleEndian">
<UnstructuredGrid>
<Piece NumberOfPoints="64" NumberOfCells="16">
<Points>
<DataArray type="Float32" NumberOfComponents="3" format="ascii">
0 0 0 0.25 0 0 0.25 0.25 0 0 0.25 0 0.25 0 0 0.5 0 0 0.5 0.25 0 0.25 0.25 0 0.5 0 0 0.75 0 0 0.75 0.25 0 0.5 0.25 0 0.75 0 0 1 0 0 1 0.25 0 0.75 0.25 0 0 0.25 0 0.25 0.25 0 0.25 0.5 0 0 0.5 0 0.25 0.25 0 0.5 0.25 0 0.5 0.5 0 0.25 0.5 0 0.5 0.25 0 0.75 0.25 0 0.75 0.5 0 0.5 0.5 0 0.75 0.25 0 1 0.25 0 1 0.5 0 0.75 0.5 0 0 0.5 0 0.25 0.5 0 0.25 0.75 0 0 0.75 0 0.25 0.5 0 0.5 0.5 0 0.5 0.75 0 0.25 0.75 0 0.5 0.5 0 0.75 0.5 0 0.75 0.75 0 0.5 0.75 0 0.75 0.5 0 1 0.5 0 1 0.75 0 0.75 0.75 0 0 0.75 0 0.25 0.75 0 0.25 1 0 0 1 0 0.25 0.75 0 0.5 0.75 0 0.5 1 0 0.25 1 0 0.5 0.75 0 0.75 0.75 0 0.75 1 0 0.5 1 0 0.75 0.75 0 1 0.75 0 1 1 0 0.75 1 0 </DataArray>
</Points>
<Cells>
<DataArray type="Int32" Name="connectivity" format="ascii">
0 1 2 3 4 5 6 7 8 9 10 11 12 13 14 15 16 17 18 19 20 21 22 23 24 25 26 27 28 29 30 31 32 33 34 35 36 37 38 39 40 41 42 43 44 45 46 47 48 49 50 51 52 53 54 55 56 57 58 59 60 61 62 63 </DataArray>
<DataArray type="Int32" Name="offsets" format="ascii">
4 8 12 16 20 24 28 32 36 40 44 48 52 56 60 64 </DataArray>
<DataArray type="UInt8" Name="types" format="ascii">
9 9 9 9 9 9 9 9 9 9 9 9 9 9 9 9 </DataArray>
</Cells>
<CellData Scalars="number_density">
<DataArray type="Float32" Name="number_density" format="ascii">
6.7888e+12 8.5296e+12 8.6192e+12 7.168e+12 7.7376e+12 1.43456e+13 1.59472e+13 8.9712e+12 7.9104e+12 1.55808e+13 1.6256e+13 8.672e+12 7.1216e+12 9.3696e+12 9.4688e+12 7.5136e+12 </DataArray>
<DataArray type="Float32" Name="temperature" format="ascii">
782.49 1024.29 1012.32 737.406 1073.86 1594.18 1555.58 965.943 1094.75 1648.06 1602.87 993.534 781.527 1058.53 1038.71 728.352 </DataArray>
<DataArray type="Float32" Name="velocity" format="ascii">
514.13 618.061 526.255 425.538 658.261 645.443 449.012 517.353 607.459 501.604 287.502 511.256 462.196 457.513 437.358 424.443 </DataArray>
</CellData>
<PointData Scalars="number_density">
<DataArray type="Float32" Name="number_density" format="ascii">
6.7888e+12 7.6592e+12 9.3504e+12 7.2632e+12 7.6592e+12 8.5744e+12 1.18604e+13 9.3504e+12 8.5744e+12 7.8936e+12 1.01764e+13 1.18604e+13 7.8936e+12 7.168e+12 8.0696e+12 1.01764e+13 7.2632e+12 9.3504e+12 1.13936e+13 7.824e+12 9.3504e+12 1.18604e+13 1.55324e+13 1.13936e+13 1.18604e+13 1.01764e+13 1.24616e+13 1.55324e+13 1.01764e+13 8.0696e+12 8.8216e+12 1.24616e+13 7.824e+12 1.13936e+13 9.9956e+12 7.516e+12 1.13936e+13 1.55324e+13 1.26688e+13 9.9956e+12 1.55324e+13 1.24616e+13 1.04776e+13 1.26688e+13 1.24616e+13 8.8216e+12 8.0928e+12 1.04776e+13 7.516e+12 9.9956e+12 8.2456e+12 7.1216e+12 9.9956e+12 1.26688e+13 9.4192e+12 8.2456e+12 1.26688e+13 1.04776e+13 8.4912e+12 9.4192e+12 1.04776e+13 8.0928e+12 7.5136e+12 8.4912e+12 </DataArray>
<DataArray type="Float32" Name="temperature" format="ascii">
782.49 903.39 1118.71 928.176 903.39 1018.3 1296.59 1118.71 1018.3 874.863 1067.81 1296.59 874.863 737.406 851.674 1067.81 928.176 1118.71 1352.71 1084.31 1118.71 1296.59 1600.17 1352.71 1296.59 1067.81 1279.48 1600.17 1067.81 851.674 979.738 1279.48 1084.31 1352.71 1145.72 938.138 1352.71 1600.17 1337.04 1145.72 1600.17 1279.48 1090.87 1337.04 1279.48 979.738 860.943 1090.87 938.138 1145.72 920.029 781.527 1145.72 1337.04 1048.62 920.029 1337.04 1090.87 883.531 1048.62 1090.87 860.943 728.352 883.531 </DataArray>
<DataArray type="Float32" Name="velocity" format="ascii">
514.13 560.967 595.822 579.602 560.967 530.19 484.302 595.822 530.19 460.946 453.114 484.302 460.946 425.538 464.09 453.114 579.602 595.822 551.379 602.46 595.822 484.302 189.645 551.379 484.302 453.114 353.234 189.645 453.114 464.09 476.031 353.234 602.46 551.379 488.642 527.288 551.379 189.645 280.264 488.642 189.645 353.234 392.841 280.264 353.234 476.031 456.804 392.841 527.288 488.642 451.285 462.196 488.642 280.264 380.181 451.285 280.264 392.841 420.981 380.181 392.841 456.804 424.443 420.981 </DataArray>
</PointData>
</Piece>
</UnstructuredGrid>
</VTKFile>
