<VTKFile type="UnstructuredGrid" version="0.1" byte_order="LittleEndian">
<UnstructuredGrid>
<Piece NumberOfPoints="64" NumberOfCells="16">
<Points>
<DataArray type="Float32" NumberOfComponents="3" format="ascii">
0 0 0 0.25 0 0 0.25 0.25 0 0 0.25 0 0.25 0 0 0.5 0 0 0.5 0.25 0 0.25 0.25 0 0.5 0 0 0.75 0 0 0.75 0.25 0 0.5 0.25 0 0.75 0 0 1 0 0 1 0.25 0 0.75 0.25 0 0 0.25 0 0.25 0.25 0 0.25 0.5 0 0 0.5 0 0.25 0.25 0 0.5 0.25 0 0.5 0.5 0 0.25 0.5 0 0.5 0.25 0 0.75 0.25 0 0.75 0.5 0 0.5 0.5 0 0.75 0.25 0 1 0.25 0 1 0.5 0 0.75 0.5 0 0 0.5 0 0.25 0.5 0 0.25 0.75 0 0 0.75 0 0.25 0.5 0 0.5 0.5 0 0.5 0.75 0 0.25 0.75 0 0.5 0.5 0 0.75 0.5 0 0.75 0.75 0 0.5 0.75 0 0.75 0.5 0 1 0.5 0 1 0.75 0 0.75 0.75 0 0 0.75 0 0.25 0.75 0 0.25 1 0 0 1 0 0.25 0.75 0 0.5 0.75 0 0.5 1 0 0.25 1 0 0.5 0.75 0 0.75 0.75 0 0.75 1 0 0.5 1 0 0.75 0.75 0 1 0.75 0 1 1 0 0.75 1 0 </DataArray>
</Points>
<Cells>
<DataArray type="Int32" Name="connectivity" format="ascii">
0 1 2 3 4 5 6 7 8 9 10 11 12 13 14 15 16 17 18 19 20 21 22 23 24 25 26 27 28 29 30 31 32 33 34 35 36 37 38 39 40 41 42 43 44 45 46 47 48 49 50 51 52 53 54 55 56 57 58 59 60 61 62 63 </DataArray>
<DataArray type="Int32" Name="offsets" format="ascii">
4 8 12 16 20 24 28 32 36 40 44 48 52 56 60 64 </DataArray>
<DataArray type="UInt8" Name="types" format="ascii">
9 9 9 9 9 9 9 9 9 9 9 9 9 9 9 9 </DataArray>
</Cells>
<CellData Scalars="number_density">
<DataArray type="Float32" Name="number_density" format="ascii">
4.7312e+12 7.0368e+12 7.1824e+12 5.3776e+12 5.7856e+12 1.72992e+13 2.07152e+13 7.792e+12 6.1104e+12 1.96368e+13 2.29808e+13 7.2384e+12 5.0976e+12 8.6688e+12 8.7296e+12 5.6176e+12 </DataArray>
<DataArray type="Float32" Name="temperature" format="ascii">
847.415 1212.84 1270.89 766.916 1319.22 2161.8 2159.53 1171.13 1331.62 2301.14 2286.97 1190.28 840.62 1308.05 1263.44 776.997 </DataArray>
<DataArray type="Float32" Name="velocity" format="ascii">
627.741 778.302 634.015 515.365 799.342 823.912 560.533 649.135 737.373 609.121 306.072 610.618 535.88 566.4 530.358 523.893 </DataArray>
</CellData>
<PointData Scalars="number_density">
<DataArray type="Float32" Name="number_density" format="ascii">
4.7312e+12 5.884e+12 8.7132e+12 5.2584e+12 5.884e+12 7.1096e+12 1.30584e+13 8.7132e+12 7.1096e+12 6.28e+12 1.02668e+13 1.30584e+13 6.28e+12 5.3776e+12 6.5848e+12 1.02668e+13 5.2584e+12 8.7132e+12 1.2208e+13 5.948e+12 8.7132e+12 1.30584e+13 2.0158e+13 1.2208e+13 1.30584e+13 1.02668e+13 1.46816e+13 2.0158e+13 1.02668e+13 6.5848e+12 7.5152e+12 1.46816e+13 5.948e+12 1.2208e+13 9.8784e+12 5.604e+12 1.2208e+13 2.0158e+13 1.5004e+13 9.8784e+12 2.0158e+13 1.46816e+13 1.11416e+13 1.5004e+13 1.46816e+13 7.5152e+12 6.428e+12 1.11416e+13 5.604e+12 9.8784e+12 6.8832e+12 5.0976e+12 9.8784e+12 1.5004e+13 8.6992e+12 6.8832e+12 1.5004e+13 1.11416e+13 7.1736e+12 8.6992e+12 1.11416e+13 6.428e+12 5.6176e+12 7.1736e+12 </DataArray>
<DataArray type="Float32" Name="temperature" format="ascii">
847.415 1030.13 1385.32 1083.32 1030.13 1241.86 1701.26 1385.32 1241.86 1018.9 1342.12 1701.26 1018.9 766.916 969.026 1342.12 1083.32 1385.32 1778.44 1325.42 1385.32 1701.26 2227.36 1778.44 1701.26 1342.12 1701.98 2227.36 1342.12 969.026 1180.71 1701.98 1325.42 1778.44 1445.36 1086.12 1778.44 2227.36 1789.9 1445.36 2227.36 1701.98 1379.42 1789.9 1701.98 1180.71 983.639 1379.42 1086.12 1445.36 1074.33 840.62 1445.36 1789.9 1285.74 1074.33 1789.9 1379.42 1020.22 1285.74 1379.42 983.639 776.997 1020.22 </DataArray>
<DataArray type="Float32" Name="velocity" format="ascii">
627.741 699.66 747.314 708.247 699.66 639.645 603.145 747.314 639.645 558.764 561.766 603.145 558.764 515.365 576.764 561.766 708.247 747.314 675.997 718.602 747.314 603.145 266.381 675.997 603.145 561.766 414.271 266.381 561.766 576.764 568.116 414.271 718.602 675.997 595.39 629.737 675.997 266.381 321.695 595.39 266.381 414.271 472.028 321.695 414.271 568.116 556.335 472.028 629.737 595.39 544.833 535.88 595.39 321.695 441.487 544.833 321.695 472.028 518.814 441.487 472.028 556.335 523.893 518.814 </DataArray>
</PointData>
</Piece>
</UnstructuredGrid>
</VTKFile>
