<VTKFile type="UnstructuredGrid" version="0.1" byte_order="LittleEndian">
<UnstructuredGrid>
<Piece NumberOfPoints="64" NumberOfCells="16">
<Points>
<DataArray type="Float32" NumberOfComponents="3" format="ascii">
0 0 0 0.25 0 0 0.25 0.25 0 0 0.25 0 0.25 0 0 0.5 0 0 0.5 0.25 0 0.25 0.25 0 0.5 0 0 0.75 0 0 0.75 0.25 0 0.5 0.25 0 0.75 0 0 1 0 0 1 0.25 0 0.75 0.25 0 0 0.25 0 0.25 0.25 0 0.25 0.5 0 0 0.5 0 0.25 0.25 0 0.5 0.25 0 0.5 0.5 0 0.25 0.5 0 0.5 0.25 0 0.75 0.25 0 0.75 0.5 0 0.5 0.5 0 0.75 0.25 0 1 0.25 0 1 0.5 0 0.75 0.5 0 0 0.5 0 0.25 0.5 0 0.25 0.75 0 0 0.75 0 0.25 0.5 0 0.5 0.5 0 0.5 0.75 0 0.25 0.75 0 0.5 0.5 0 0.75 0.5 0 0.75 0.75 0 0.5 0.75 0 0.75 0.5 0 1 0.5 0 1 0.75 0 0.75 0.75 0 0 0.75 0 0.25 0.75 0 0.25 1 0 0 1 0 0.25 0.75 0 0.5 0.75 0 0.5 1 0 0.25 1 0 0.5 0.75 0 0.75 0.75 0 0.75 1 0 0.5 1 0 0.75 0.75 0 1 0.75 0 1 1 0 0.75 1 0 </DataArray>
</Points>
<Cells>
<DataArray type="Int32" Name="connectivity" format="ascii">
0 1 2 3 4 5 6 7 8 9 10 11 12 13 14 15 16 17 18 19 20 21 22 23 24 25 26 27 28 29 30 31 32 33 34 35 36 37 38 39 40 41 42 43 44 45 46 47 48 49 50 51 52 53 54 55 56 57 58 59 60 61 62 63 </DataArray>
<DataArray type="Int32" Name="offsets" format="ascii">
4 8 12 16 20 24 28 32 36 40 44 48 52 56 60 64 </DataArray>
<DataArray type="UInt8" Name="types" format="ascii">
9 9 9 9 9 9 9 9 9 9 9 9 9 9 9 9 </DataArray>
</Cells>
<CellData Scalars="number_density">
<DataArray type="Float32" Name="number_density" format="ascii">
6.208e+12 8.1072e+12 8.2992e+12 6.664e+12 7.2608e+12 1.52576e+13 1.70944e+13 8.6992e+12 7.4192e+12 1.67888e+13 1.78528e+13 8.3088e+12 6.56e+12 9.144e+12 9.3632e+12 6.9728e+12 </DataArray>
<DataArray type="Float32" Name="temperature" format="ascii">
797.088 1075.28 1083.47 744.027 1142.08 1752.54 1707.68 1017.07 1152.99 1826.31 1787.88 1042.37 798.235 1124.35 1092.65 738.186 </DataArray>
<DataArray type="Float32" Name="velocity" format="ascii">
553.083 665.077 562.378 454.674 701.888 703.967 486.893 560.587 650.019 544.061 303.322 545.834 488.685 491.223 469.885 454.285 </DataArray>
</CellData>
<PointData Scalars="number_density">
<DataArray type="Float32" Name="number_density" format="ascii">
6.208e+12 7.1576e+12 9.2084e+12 6.7344e+12 7.1576e+12 8.2032e+12 1.21896e+13 9.2084e+12 8.2032e+12 7.4816e+12 1.01892e+13 1.21896e+13 7.4816e+12 6.664e+12 7.6816e+12 1.01892e+13 6.7344e+12 9.2084e+12 1.16816e+13 7.34e+12 9.2084e+12 1.21896e+13 1.67484e+13 1.16816e+13 1.21896e+13 1.01892e+13 1.29888e+13 1.67484e+13 1.01892e+13 7.6816e+12 8.504e+12 1.29888e+13 7.34e+12 1.16816e+13 9.978e+12 6.9896e+12 1.16816e+13 1.67484e+13 1.32872e+13 9.978e+12 1.67484e+13 1.29888e+13 1.06244e+13 1.32872e+13 1.29888e+13 8.504e+12 7.6408e+12 1.06244e+13 6.9896e+12 9.978e+12 7.852e+12 6.56e+12 9.978e+12 1.32872e+13 9.2536e+12 7.852e+12 1.32872e+13 1.06244e+13 8.168e+12 9.2536e+12 1.06244e+13 7.6408e+12 6.9728e+12 8.168e+12 </DataArray>
<DataArray type="Float32" Name="temperature" format="ascii">
797.088 936.186 1191.75 969.583 936.186 1079.37 1404.74 1191.75 1079.37 913.747 1138.06 1404.74 913.747 744.027 880.548 1138.06 969.583 1191.75 1468.48 1147.53 1191.75 1404.74 1768.6 1468.48 1404.74 1138.06 1388.75 1768.6 1138.06 880.548 1029.72 1388.75 1147.53 1468.48 1225.47 975.613 1468.48 1768.6 1457.8 1225.47 1768.6 1388.75 1165.27 1457.8 1388.75 1029.72 890.278 1165.27 975.613 1225.47 961.295 798.235 1225.47 1457.8 1108.5 961.295 1457.8 1165.27 915.42 1108.5 1165.27 890.278 738.186 915.42 </DataArray>
<DataArray type="Float32" Name="velocity" format="ascii">
553.083 604.172 643.483 621.29 604.172 565.37 522.393 643.483 565.37 493.313 488.971 522.393 493.313 454.674 500.502 488.971 621.29 643.483 593.284 641.091 643.483 522.393 211.551 593.284 522.393 488.971 377.167 211.551 488.971 500.502 508.058 377.167 641.091 593.284 525.369 561.747 593.284 211.551 296.384 525.369 211.551 377.167 421.279 296.384 377.167 508.058 489.462 421.279 561.747 525.369 482.09 488.685 525.369 296.384 401.739 482.09 296.384 421.279 452.259 401.739 421.279 489.462 454.285 452.259 </DataArray>
</PointData>
</Piece>
</UnstructuredGrid>
</VTKFile>
