<VTKFile type="UnstructuredGrid" version="0.1" byte_order="LittleEndian">
<UnstructuredGrid>
<Piece NumberOfPoints="64" NumberOfCells="16">
<Points>
<DataArray type="Float32" NumberOfComponents="3" format="ascii">
0 0 0 0.25 0 0 0.25 0.25 0 0 0.25 0 0.25 0 0 0.5 0 0 0.5 0.25 0 0.25 0.25 0 0.5 0 0 0.75 0 0 0.75 0.25 0 0.5 0.25 0 0.75 0 0 1 0 0 1 0.25 0 0.75 0.25 0 0 0.25 0 0.25 0.25 0 0.25 0.5 0 0 0.5 0 0.25 0.25 0 0.5 0.25 0 0.5 0.5 0 0.25 0.5 0 0.5 0.25 0 0.75 0.25 0 0.75 0.5 0 0.5 0.5 0 0.75 0.25 0 1 0.25 0 1 0.5 0 0.75 0.5 0 0 0.5 0 0.25 0.5 0 0.25 0.75 0 0 0.75 0 0.25 0.5 0 0.5 0.5 0 0.5 0.75 0 0.25 0.75 0 0.5 0.5 0 0.75 0.5 0 0.75 0.75 0 0.5 0.75 0 0.75 0.5 0 1 0.5 0 1 0.75 0 0.75 0.75 0 0 0.75 0 0.25 0.75 0 0.25 1 0 0 1 0 0.25 0.75 0 0.5 0.75 0 0.5 1 0 0.25 1 0 0.5 0.75 0 0.75 0.75 0 0.75 1 0 0.5 1 0 0.75 0.75 0 1 0.75 0 1 1 0 0.75 1 0 </DataArray>
</Points>
<Cells>
<DataArray type="Int32" Name="connectivity" format="ascii">
0 1 2 3 4 5 6 7 8 9 10 11 12 13 14 15 16 17 18 19 20 21 22 23 24 25 26 27 28 29 30 31 32 33 34 35 36 37 38 39 40 41 42 43 44 45 46 47 48 49 50 51 52 53 54 55 56 57 58 59 60 61 62 63 </DataArray>
<DataArray type="Int32" Name="offsets" format="ascii">
4 8 12 16 20 24 28 32 36 40 44 48 52 56 60 64 </DataArray>
<DataArray type="UInt8" Name="types" format="ascii">
9 9 9 9 9 9 9 9 9 9 9 9 9 9 9 9 </DataArray>
</Cells>
<CellData Scalars="number_density">
<DataArray type="Float32" Name="number_density" format="ascii">
8.8064e+12 9.4816e+12 9.6576e+12 8.7856e+12 9.2656e+12 1.16288e+13 1.21776e+13 9.792e+12 9.2176e+12 1.19008e+13 1.21312e+13 9.5712e+12 8.872e+12 9.8144e+12 9.84e+12 9.0576e+12 </DataArray>
<DataArray type="Float32" Name="temperature" format="ascii">
725.575 829.957 823.938 709.924 845.999 1050.37 1025.94 802.698 849.457 1079.15 1041.31 811.432 726.413 833.41 831.236 692.704 </DataArray>
<DataArray type="Float32" Name="velocity" format="ascii">
340.137 388.76 348.21 280.143 424.764 388.683 274.161 334.293 398.104 299.851 180.896 334.53 309.065 301.914 285.419 272.375 </DataArray>
</CellData>
<PointData Scalars="number_density">
<DataArray type="Float32" Name="number_density" format="ascii">
8.8064e+12 9.144e+12 9.7956e+12 9.036e+12 9.144e+12 9.5696e+12 1.07364e+13 9.7956e+12 9.5696e+12 9.2216e+12 1.01032e+13 1.07364e+13 9.2216e+12 8.7856e+12 9.2888e+12 1.01032e+13 9.036e+12 9.7956e+12 1.05032e+13 9.2416e+12 9.7956e+12 1.07364e+13 1.19596e+13 1.05032e+13 1.07364e+13 1.01032e+13 1.0918e+13 1.19596e+13 1.01032e+13 9.2888e+12 9.6816e+12 1.0918e+13 9.2416e+12 1.05032e+13 9.9512e+12 9.0448e+12 1.05032e+13 1.19596e+13 1.09216e+13 9.9512e+12 1.19596e+13 1.0918e+13 1.015e+13 1.09216e+13 1.0918e+13 9.6816e+12 9.3144e+12 1.015e+13 9.0448e+12 9.9512e+12 9.3432e+12 8.872e+12 9.9512e+12 1.09216e+13 9.8272e+12 9.3432e+12 1.09216e+13 1.015e+13 9.4488e+12 9.8272e+12 1.015e+13 9.3144e+12 9.0576e+12 9.4488e+12 </DataArray>
<DataArray type="Float32" Name="temperature" format="ascii">
725.575 777.766 862.975 785.787 777.766 826.948 932.55 862.975 826.948 766.931 840.624 932.55 766.931 709.924 756.311 840.624 785.787 862.975 956.244 847.728 862.975 932.55 1049.19 956.244 932.55 840.624 920.344 1049.19 840.624 756.311 807.065 920.344 847.728 956.244 872.109 787.935 956.244 1049.19 946.277 872.109 1049.19 920.344 844.17 946.277 920.344 807.065 752.068 844.17 787.935 872.109 779.911 726.413 872.109 946.277 832.323 779.911 946.277 844.17 761.97 832.323 844.17 752.068 692.704 761.97 </DataArray>
<DataArray type="Float32" Name="velocity" format="ascii">
340.137 359.109 373.863 377.054 359.109 346.953 304.777 373.863 346.953 303.946 288.825 304.777 303.946 280.143 299.644 288.825 377.054 373.863 345.611 396.034 373.863 304.777 106.473 345.611 304.777 288.825 229.756 106.473 288.825 299.644 315.183 229.756 396.034 345.611 312.511 347.456 345.611 106.473 188.002 312.511 106.473 229.756 250.719 188.002 229.756 315.183 295.868 250.719 347.456 312.511 298.217 309.065 312.511 188.002 259.456 298.217 188.002 250.719 269.868 259.456 250.719 295.868 272.375 269.868 </DataArray>
</PointData>
</Piece>
</UnstructuredGrid>
</VTKFile>
