<VTKFile type="UnstructuredGrid" version="0.1" byte_order="LittleEndian">
<UnstructuredGrid>
<Piece NumberOfPoints="64" NumberOfCells="16">
<Points>
<DataArray type="Float32" NumberOfComponents="3" format="ascii">
0 0 0 0.25 0 0 0.25 0.25 0 0 0.25 0 0.25 0 0 0.5 0 0 0.5 0.25 0 0.25 0.25 0 0.5 0 0 0.75 0 0 0.75 0.25 0 0.5 0.25 0 0.75 0 0 1 0 0 1 0.25 0 0.75 0.25 0 0 0.25 0 0.25 0.25 0 0.25 0.5 0 0 0.5 0 0.25 0.25 0 0.5 0.25 0 0.5 0.5 0 0.25 0.5 0 0.5 0.25 0 0.75 0.25 0 0.75 0.5 0 0.5 0.5 0 0.75 0.25 0 1 0.25 0 1 0.5 0 0.75 0.5 0 0 0.5 0 0.25 0.5 0 0.25 0.75 0 0 0.75 0 0.25 0.5 0 0.5 0.5 0 0.5 0.75 0 0.25 0.75 0 0.5 0.5 0 0.75 0.5 0 0.75 0.75 0 0.5 0.75 0 0.75 0.5 0 1 0.5 0 1 0.75 0 0.75 0.75 0 0 0.75 0 0.25 0.75 0 0.25 1 0 0 1 0 0.25 0.75 0 0.5 0.75 0 0.5 1 0 0.25 1 0 0.5 0.75 0 0.75 0.75 0 0.75 1 0 0.5 1 0 0.75 0.75 0 1 0.75 0 1 1 0 0.75 1 0 </DataArray>
</Points>
<Cells>
<DataArray type="Int32" Name="connectivity" format="ascii">
0 1 2 3 4 5 6 7 8 9 10 11 12 13 14 15 16 17 18 19 20 21 22 23 24 25 26 27 28 29 30 31 32 33 34 35 36 37 38 39 40 41 42 43 44 45 46 47 48 49 50 51 52 53 54 55 56 57 58 59 60 61 62 63 </DataArray>
<DataArray type="Int32" Name="offsets" format="ascii">
4 8 12 16 20 24 28 32 36 40 44 48 52 56 60 64 </DataArray>
<DataArray type="UInt8" Name="types" format="ascii">
9 9 9 9 9 9 9 9 9 9 9 9 9 9 9 9 </DataArray>
</Cells>
<CellData Scalars="number_density">
<DataArray type="Float32" Name="number_density" format="ascii">
5.632e+12 7.728e+12 7.8576e+12 6.1488e+12 6.656e+12 1.61312e+13 1.84848e+13 8.3856e+12 6.9664e+12 1.7896e+13 1.968e+13 7.9088e+12 5.9488e+12 8.9936e+12 9.1008e+12 6.4816e+12 </DataArray>
<DataArray type="Float32" Name="temperature" format="ascii">
816.481 1129.37 1147.98 752.999 1206.68 1914.63 1877.82 1073.71 1226.5 2005.3 1980.32 1097.36 818.017 1190.68 1151.37 755.482 </DataArray>
<DataArray type="Float32" Name="velocity" format="ascii">
587.116 712.762 593.047 478.207 744.885 757.764 520.127 600.74 685.876 579.299 313.792 575.475 514.209 521.442 498.133 487.504 </DataArray>
</CellData>
<PointData Scalars="number_density">
<DataArray type="Float32" Name="number_density" format="ascii">
5.632e+12 6.68e+12 9.0368e+12 6.144e+12 6.68e+12 7.7928e+12 1.25504e+13 9.0368e+12 7.7928e+12 7.0032e+12 1.02192e+13 1.25504e+13 7.0032e+12 6.1488e+12 7.2672e+12 1.02192e+13 6.144e+12 9.0368e+12 1.19124e+13 6.8112e+12 9.0368e+12 1.25504e+13 1.8048e+13 1.19124e+13 1.25504e+13 1.02192e+13 1.36148e+13 1.8048e+13 1.02192e+13 7.2672e+12 8.1472e+12 1.36148e+13 6.8112e+12 1.19124e+13 9.9512e+12 6.4576e+12 1.19124e+13 1.8048e+13 1.39176e+13 9.9512e+12 1.8048e+13 1.36148e+13 1.07928e+13 1.39176e+13 1.36148e+13 8.1472e+12 7.1952e+12 1.07928e+13 6.4576e+12 9.9512e+12 7.4712e+12 5.9488e+12 9.9512e+12 1.39176e+13 9.0472e+12 7.4712e+12 1.39176e+13 1.07928e+13 7.7912e+12 9.0472e+12 1.07928e+13 7.1952e+12 6.4816e+12 7.7912e+12 </DataArray>
<DataArray type="Float32" Name="temperature" format="ascii">
816.481 972.926 1266.79 1011.58 972.926 1138.68 1517.45 1266.79 1138.68 950.491 1213.13 1517.45 950.491 752.999 913.354 1213.13 1011.58 1266.79 1588.28 1216.59 1266.79 1517.45 1944.52 1588.28 1517.45 1213.13 1507.3 1944.52 1213.13 913.354 1085.54 1507.3 1216.59 1588.28 1310.12 1022.26 1588.28 1944.52 1581.92 1310.12 1944.52 1507.3 1246.13 1581.92 1507.3 1085.54 926.422 1246.13 1022.26 1310.12 1004.35 818.017 1310.12 1581.92 1171.02 1004.35 1581.92 1246.13 953.425 1171.02 1246.13 926.422 755.482 953.425 </DataArray>
<DataArray type="Float32" Name="velocity" format="ascii">
587.116 645.748 688.5 659.416 645.748 597.3 556.895 688.5 597.3 520.535 521.331 556.895 520.535 478.207 533.161 521.331 659.416 688.5 632.047 676.849 688.5 556.895 233.01 632.047 556.895 521.331 396.564 233.01 521.331 533.161 535.379 396.564 676.849 632.047 557.56 592.103 632.047 233.01 309.473 557.56 233.01 396.564 446.867 309.473 396.564 535.379 520.933 446.867 592.103 557.56 510.879 514.209 557.56 309.473 419.062 510.879 309.473 446.867 483.116 419.062 446.867 520.933 487.504 483.116 </DataArray>
</PointData>
</Piece>
</UnstructuredGrid>
</VTKFile>
