<VTKFile type="UnstructuredGrid" version="0.1" byte_order="LittleEndian">
<UnstructuredGrid>
<Piece NumberOfPoints="64" NumberOfCells="16">
<Points>
<DataArray type="Float32" NumberOfComponents="3" format="ascii">
0 0 0 0.25 0 0 0.25 0.25 0 0 0.25 0 0.25 0 0 0.5 0 0 0.5 0.25 0 0.25 0.25 0 0.5 0 0 0.75 0 0 0.75 0.25 0 0.5 0.25 0 0.75 0 0 1 0 0 1 0.25 0 0.75 0.25 0 0 0.25 0 0.25 0.25 0 0.25 0.5 0 0 0.5 0 0.25 0.25 0 0.5 0.25 0 0.5 0.5 0 0.25 0.5 0 0.5 0.25 0 0.75 0.25 0 0.75 0.5 0 0.5 0.5 0 0.75 0.25 0 1 0.25 0 1 0.5 0 0.75 0.5 0 0 0.5 0 0.25 0.5 0 0.25 0.75 0 0 0.75 0 0.25 0.5 0 0.5 0.5 0 0.5 0.75 0 0.25 0.75 0 0.5 0.5 0 0.75 0.5 0 0.75 0.75 0 0.5 0.75 0 0.75 0.5 0 1 0.5 0 1 0.75 0 0.75 0.75 0 0 0.75 0 0.25 0.75 0 0.25 1 0 0 1 0 0.25 0.75 0 0.5 0.75 0 0.5 1 0 0.25 1 0 0.5 0.75 0 0.75 0.75 0 0.75 1 0 0.5 1 0 0.75 0.75 0 1 0.75 0 1 1 0 0.75 1 0 </DataArray>
</Points>
<Cells>
<DataArray type="Int32" Name="connectivity" format="ascii">
0 1 2 3 4 5 6 7 8 9 10 11 12 13 14 15 16 17 18 19 20 21 22 23 24 25 26 27 28 29 30 31 32 33 34 35 36 37 38 39 40 41 42 43 44 45 46 47 48 49 50 51 52 53 54 55 56 57 58 59 60 61 62 63 </DataArray>
<DataArray type="Int32" Name="offsets" format="ascii">
4 8 12 16 20 24 28 32 36 40 44 48 52 56 60 64 </DataArray>
<DataArray type="UInt8" Name="types" format="ascii">
9 9 9 9 9 9 9 9 9 9 9 9 9 9 9 9 </DataArray>
</Cells>
<CellData Scalars="number_density">
<DataArray type="Float32" Name="number_density" format="ascii">
4.4304e+12 6.7488e+12 6.944e+12 5.136e+12 5.504e+12 1.76128e+13 2.15008e+13 7.552e+12 5.7392e+12 2.03104e+13 2.40544e+13 7.112e+12 4.8704e+12 8.5264e+12 8.6352e+12 5.3232e+12 </DataArray>
<DataArray type="Float32" Name="temperature" format="ascii">
855.082 1252.52 1301.42 777.381 1355.98 2245.11 2265.49 1184.99 1374.17 2389 2409.21 1228.43 854.964 1349.42 1304.22 785.643 </DataArray>
<DataArray type="Float32" Name="velocity" format="ascii">
644.341 798.581 645.61 525.918 816.486 842.478 565.763 666.933 744.171 616.111 295.277 625 547.313 577.041 543.258 535.021 </DataArray>
</CellData>
<PointData Scalars="number_density">
<DataArray type="Float32" Name="number_density" format="ascii">
4.4304e+12 5.5896e+12 8.574e+12 4.9672e+12 5.5896e+12 6.8464e+12 1.32016e+13 8.574e+12 6.8464e+12 6.04e+12 1.02832e+13 1.32016e+13 6.04e+12 5.136e+12 6.344e+12 1.02832e+13 4.9672e+12 8.574e+12 1.22916e+13 5.6216e+12 8.574e+12 1.32016e+13 2.08696e+13 1.22916e+13 1.32016e+13 1.02832e+13 1.50548e+13 2.08696e+13 1.02832e+13 6.344e+12 7.332e+12 1.50548e+13 5.6216e+12 1.22916e+13 9.8616e+12 5.3048e+12 1.22916e+13 2.08696e+13 1.53816e+13 9.8616e+12 2.08696e+13 1.50548e+13 1.12812e+13 1.53816e+13 1.50548e+13 7.332e+12 6.2176e+12 1.12812e+13 5.3048e+12 9.8616e+12 6.6984e+12 4.8704e+12 9.8616e+12 1.53816e+13 8.5808e+12 6.6984e+12 1.53816e+13 1.12812e+13 6.9792e+12 8.5808e+12 1.12812e+13 6.2176e+12 5.3232e+12 6.9792e+12 </DataArray>
<DataArray type="Float32" Name="temperature" format="ascii">
855.082 1053.8 1427.17 1105.53 1053.8 1276.97 1766.13 1427.17 1276.97 1039.4 1382.32 1766.13 1039.4 777.381 981.185 1382.32 1105.53 1427.17 1841.06 1365.07 1427.17 1766.13 2327.2 1841.06 1766.13 1382.32 1772.03 2327.2 1382.32 981.185 1206.71 1772.03 1365.07 1841.06 1491.89 1114.57 1841.06 2327.2 1862.96 1491.89 2327.2 1772.03 1431.88 1862.96 1772.03 1206.71 1007.04 1431.88 1114.57 1491.89 1102.19 854.964 1491.89 1862.96 1326.82 1102.19 1862.96 1431.88 1044.93 1326.82 1431.88 1007.04 785.643 1044.93 </DataArray>
<DataArray type="Float32" Name="velocity" format="ascii">
644.341 718.903 766.23 724.943 718.903 650.24 616.01 766.23 650.24 569.797 573.287 616.01 569.797 525.918 591.652 573.287 724.943 766.23 686.362 728.753 766.23 616.01 278.08 686.362 616.01 573.287 416.946 278.08 573.287 591.652 578.208 416.946 728.753 686.362 604.639 638.961 686.362 278.08 323.726 604.639 278.08 416.946 479.793 323.726 416.946 578.208 569.541 479.793 638.961 604.639 556.04 547.313 604.639 323.726 447.155 556.04 323.726 479.793 531.268 447.155 479.793 569.541 535.021 531.268 </DataArray>
</PointData>
</Piece>
</UnstructuredGrid>
</VTKFile>
