<VTKFile type="UnstructuredGrid" version="0.1" byte_order="LittleEndian">
<UnstructuredGrid>
<Piece NumberOfPoints="64" NumberOfCells="16">
<Points>
<DataArray type="Float32" NumberOfComponents="3" format="ascii">
0 0 0 0.25 0 0 0.25 0.25 0 0 0.25 0 0.25 0 0 0.5 0 0 0.5 0.25 0 0.25 0.25 0 0.5 0 0 0.75 0 0 0.75 0.25 0 0.5 0.25 0 0.75 0 0 1 0 0 1 0.25 0 0.75 0.25 0 0 0.25 0 0.25 0.25 0 0.25 0.5 0 0 0.5 0 0.25 0.25 0 0.5 0.25 0 0.5 0.5 0 0.25 0.5 0 0.5 0.25 0 0.75 0.25 0 0.75 0.5 0 0.5 0.5 0 0.75 0.25 0 1 0.25 0 1 0.5 0 0.75 0.5 0 0 0.5 0 0.25 0.5 0 0.25 0.75 0 0 0.75 0 0.25 0.5 0 0.5 0.5 0 0.5 0.75 0 0.25 0.75 0 0.5 0.5 0 0.75 0.5 0 0.75 0.75 0 0.5 0.75 0 0.75 0.5 0 1 0.5 0 1 0.75 0 0.75 0.75 0 0 0.75 0 0.25 0.75 0 0.25 1 0 0 1 0 0.25 0.75 0 0.5 0.75 0 0.5 1 0 0.25 1 0 0.5 0.75 0 0.75 0.75 0 0.75 1 0 0.5 1 0 0.75 0.75 0 1 0.75 0 1 1 0 0.75 1 0 </DataArray>
</Points>
<Cells>
<DataArray type="Int32" Name="connectivity" format="ascii">
0 1 2 3 4 5 6 7 8 9 10 11 12 13 14 15 16 17 18 19 20 21 22 23 24 25 26 27 28 29 30 31 32 33 34 35 36 37 38 39 40 41 42 43 44 45 46 47 48 49 50 51 52 53 54 55 56 57 58 59 60 61 62 63 </DataArray>
<DataArray type="Int32" Name="offsets" format="ascii">
4 8 12 16 20 24 28 32 36 40 44 48 52 56 60 64 </DataArray>
<DataArray type="UInt8" Name="types" format="ascii">
9 9 9 9 9 9 9 9 9 9 9 9 9 9 9 9 </DataArray>
</Cells>
<CellData Scalars="number_density">
<DataArray type="Float32" Name="number_density" format="ascii">
1.016e+13 9.9184e+12 1.00224e+13 9.8272e+12 9.9936e+12 1.0048e+13 1.02816e+13 1.0104e+13 9.816e+12 9.9056e+12 1.00352e+13 9.8928e+12 1.00576e+13 9.9536e+12 9.9328e+12 1.00512e+13 </DataArray>
<DataArray type="Float32" Name="temperature" format="ascii">
693.284 705.643 693.441 708.587 701.912 695.868 707.093 707.119 695.841 700.183 699.351 702.798 700.717 692.999 705.939 685.228 </DataArray>
<DataArray type="Float32" Name="velocity" format="ascii">
30.2191 38.0095 29.3157 28.8021 35.1763 34.7543 28.6028 22.4262 33.2178 22.1641 7.87682 32.2175 35.0267 30.7409 30.9419 22.8148 </DataArray>
</CellData>
<PointData Scalars="number_density">
<DataArray type="Float32" Name="number_density" format="ascii">
1.016e+13 1.00392e+13 1.003e+13 1.00768e+13 1.00392e+13 9.9704e+12 1.00676e+13 1.003e+13 9.9704e+12 9.9248e+12 1.00588e+13 1.00676e+13 9.9248e+12 9.8272e+12 9.9656e+12 1.00588e+13 1.00768e+13 1.003e+13 9.9408e+12 9.9048e+12 1.003e+13 1.00676e+13 1.00676e+13 9.9408e+12 1.00676e+13 1.00588e+13 1.00784e+13 1.00676e+13 1.00588e+13 9.9656e+12 9.9984e+12 1.00784e+13 9.9048e+12 9.9408e+12 9.9332e+12 9.9368e+12 9.9408e+12 1.00676e+13 9.9568e+12 9.9332e+12 1.00676e+13 1.00784e+13 9.978e+12 9.9568e+12 1.00784e+13 9.9984e+12 9.972e+12 9.978e+12 9.9368e+12 9.9332e+12 1.00056e+13 1.00576e+13 9.9332e+12 9.9568e+12 9.9432e+12 1.00056e+13 9.9568e+12 9.978e+12 9.992e+12 9.9432e+12 9.978e+12 9.972e+12 1.00512e+13 9.992e+12 </DataArray>
<DataArray type="Float32" Name="temperature" format="ascii">
693.284 699.464 699.177 697.598 699.464 699.542 700.511 699.177 699.542 701.014 704.06 700.511 701.014 708.587 707.853 704.06 697.598 699.177 698.451 698.876 699.177 700.511 700.624 698.451 700.511 704.06 704.09 700.624 704.06 707.853 704.958 704.09 698.876 698.451 697.435 698.279 698.451 700.624 699.618 697.435 700.624 704.09 698.329 699.618 704.09 704.958 694.013 698.329 698.279 697.435 696.858 700.717 697.435 699.618 699.469 696.858 699.618 698.329 695.584 699.469 698.329 694.013 685.228 695.584 </DataArray>
<DataArray type="Float32" Name="velocity" format="ascii">
30.2191 33.2482 32.9994 32.1476 33.2482 31.761 28.1159 32.9994 31.761 28.7206 25.8859 28.1159 28.7206 28.8021 24.4102 25.8859 32.1476 32.9994 26.4521 31.1252 32.9994 28.1159 9.67263 26.4521 28.1159 25.8859 18.0118 9.67263 25.8859 24.4102 25.2171 18.0118 31.1252 26.4521 29.3461 33.9886 26.4521 9.67263 18.1769 29.3461 9.67263 18.0118 21.8565 18.1769 18.0118 25.2171 26.6945 21.8565 33.9886 29.3461 31.2878 35.0267 29.3461 18.1769 26.8478 31.2878 18.1769 21.8565 25.9572 26.8478 21.8565 26.6945 22.8148 25.9572 </DataArray>
</PointData>
</Piece>
</UnstructuredGrid>
</VTKFile>
