<VTKFile type="UnstructuredGrid" version="0.1" byte_order="LittleEndian">
<UnstructuredGrid>
<Piece NumberOfPoints="64" NumberOfCells="16">
<Points>
<DataArray type="Float32" NumberOfComponents="3" format="ascii">
0 0 0 0.25 0 0 0.25 0.25 0 0 0.25 0 0.25 0 0 0.5 0 0 0.5 0.25 0 0.25 0.25 0 0.5 0 0 0.75 0 0 0.75 0.25 0 0.5 0.25 0 0.75 0 0 1 0 0 1 0.25 0 0.75 0.25 0 0 0.25 0 0.25 0.25 0 0.25 0.5 0 0 0.5 0 0.25 0.25 0 0.5 0.25 0 0.5 0.5 0 0.25 0.5 0 0.5 0.25 0 0.75 0.25 0 0.75 0.5 0 0.5 0.5 0 0.75 0.25 0 1 0.25 0 1 0.5 0 0.75 0.5 0 0 0.5 0 0.25 0.5 0 0.25 0.75 0 0 0.75 0 0.25 0.5 0 0.5 0.5 0 0.5 0.75 0 0.25 0.75 0 0.5 0.5 0 0.75 0.5 0 0.75 0.75 0 0.5 0.75 0 0.75 0.5 0 1 0.5 0 1 0.75 0 0.75 0.75 0 0 0.75 0 0.25 0.75 0 0.25 1 0 0 1 0 0.25 0.75 0 0.5 0.75 0 0.5 1 0 0.25 1 0 0.5 0.75 0 0.75 0.75 0 0.75 1 0 0.5 1 0 0.75 0.75 0 1 0.75 0 1 1 0 0.75 1 0 </DataArray>
</Points>
<Cells>
<DataArray type="Int32" Name="connectivity" format="ascii">
0 1 2 3 4 5 6 7 8 9 10 11 12 13 14 15 16 17 18 19 20 21 22 23 24 25 26 27 28 29 30 31 32 33 34 35 36 37 38 39 40 41 42 43 44 45 46 47 48 49 50 51 52 53 54 55 56 57 58 59 60 61 62 63 </DataArray>
<DataArray type="Int32" Name="offsets" format="ascii">
4 8 12 16 20 24 28 32 36 40 44 48 52 56 60 64 </DataArray>
<DataArray type="UInt8" Name="types" format="ascii">
9 9 9 9 9 9 9 9 9 9 9 9 9 9 9 9 </DataArray>
</Cells>
<CellData Scalars="number_density">
<DataArray type="Float32" Name="number_density" format="ascii">
8.9968e+12 9.5456e+12 9.728e+12 8.9424e+12 9.3904e+12 1.14032e+13 1.19008e+13 9.8256e+12 9.3392e+12 1.15568e+13 1.17632e+13 9.6608e+12 9.0448e+12 9.8368e+12 9.88e+12 9.1856e+12 </DataArray>
<DataArray type="Float32" Name="temperature" format="ascii">
717.629 812.211 804.225 708.219 826.712 998.325 977.545 786.356 824.606 1017.91 987.547 794.744 718.805 813.518 810.102 690.19 </DataArray>
<DataArray type="Float32" Name="velocity" format="ascii">
315.909 357.849 322.342 260.436 393.211 355.601 252.177 307.347 369.018 273.583 165.691 310.284 284.651 279.623 263.676 251.248 </DataArray>
</CellData>
<PointData Scalars="number_density">
<DataArray type="Float32" Name="number_density" format="ascii">
8.9968e+12 9.2712e+12 9.834e+12 9.1936e+12 9.2712e+12 9.6368e+12 1.06444e+13 9.834e+12 9.6368e+12 9.3352e+12 1.00992e+13 1.06444e+13 9.3352e+12 8.9424e+12 9.384e+12 1.00992e+13 9.1936e+12 9.834e+12 1.04224e+13 9.3648e+12 9.834e+12 1.06444e+13 1.1656e+13 1.04224e+13 1.06444e+13 1.00992e+13 1.07876e+13 1.1656e+13 1.00992e+13 9.384e+12 9.7432e+12 1.07876e+13 9.3648e+12 1.04224e+13 9.9444e+12 9.192e+12 1.04224e+13 1.1656e+13 1.07592e+13 9.9444e+12 1.1656e+13 1.07876e+13 1.01224e+13 1.07592e+13 1.07876e+13 9.7432e+12 9.4232e+12 1.01224e+13 9.192e+12 9.9444e+12 9.4408e+12 9.0448e+12 9.9444e+12 1.07592e+13 9.8584e+12 9.4408e+12 1.07592e+13 1.01224e+13 9.5328e+12 9.8584e+12 1.01224e+13 9.4232e+12 9.1856e+12 9.5328e+12 </DataArray>
<DataArray type="Float32" Name="temperature" format="ascii">
717.629 764.92 838.719 772.17 764.92 808.218 898.076 838.719 808.218 756.222 819.086 898.076 756.222 708.219 747.287 819.086 772.17 838.719 916.888 825.659 838.719 898.076 995.331 916.888 898.076 819.086 886.548 995.331 819.086 747.287 790.55 886.548 825.659 916.888 843.71 771.705 916.888 995.331 907.269 843.71 995.331 886.548 820.646 907.269 886.548 790.55 742.467 820.646 771.705 843.71 766.162 718.805 843.71 907.269 811.81 766.162 907.269 820.646 750.146 811.81 820.646 742.467 690.19 750.146 </DataArray>
<DataArray type="Float32" Name="velocity" format="ascii">
315.909 331.598 344.431 349.563 331.598 321.067 280.595 344.431 321.067 281.713 266.5 280.595 281.713 260.436 276.749 266.5 349.563 344.431 317.671 366.874 344.431 280.595 95.9466 317.671 280.595 266.5 212.014 95.9466 266.5 276.749 291.436 212.014 366.874 317.671 288.371 321.057 317.671 95.9466 174.482 288.371 95.9466 212.014 231.333 174.482 212.014 291.436 273.745 231.333 321.057 288.371 275.717 284.651 288.371 174.482 239.906 275.717 174.482 231.333 248.956 239.906 231.333 273.745 251.248 248.956 </DataArray>
</PointData>
</Piece>
</UnstructuredGrid>
</VTKFile>
