<VTKFile type="UnstructuredGrid" version="0.1" byte_order="LittleEndian">
<UnstructuredGrid>
<Piece NumberOfPoints="64" NumberOfCells="16">
<Points>
<DataArray type="Float32" NumberOfComponents="3" format="ascii">
0 0 0 0.25 0 0 0.25 0.25 0 0 0.25 0 0.25 0 0 0.5 0 0 0.5 0.25 0 0.25 0.25 0 0.5 0 0 0.75 0 0 0.75 0.25 0 0.5 0.25 0 0.75 0 0 1 0 0 1 0.25 0 0.75 0.25 0 0 0.25 0 0.25 0.25 0 0.25 0.5 0 0 0.5 0 0.25 0.25 0 0.5 0.25 0 0.5 0.5 0 0.25 0.5 0 0.5 0.25 0 0.75 0.25 0 0.75 0.5 0 0.5 0.5 0 0.75 0.25 0 1 0.25 0 1 0.5 0 0.75 0.5 0 0 0.5 0 0.25 0.5 0 0.25 0.75 0 0 0.75 0 0.25 0.5 0 0.5 0.5 0 0.5 0.75 0 0.25 0.75 0 0.5 0.5 0 0.75 0.5 0 0.75 0.75 0 0.5 0.75 0 0.75 0.5 0 1 0.5 0 1 0.75 0 0.75 0.75 0 0 0.75 0 0.25 0.75 0 0.25 1 0 0 1 0 0.25 0.75 0 0.5 0.75 0 0.5 1 0 0.25 1 0 0.5 0.75 0 0.75 0.75 0 0.75 1 0 0.5 1 0 0.75 0.75 0 1 0.75 0 1 1 0 0.75 1 0 </DataArray>
</Points>
<Cells>
<DataArray type="Int32" Name="connectivity" format="ascii">
0 1 2 3 4 5 6 7 8 9 10 11 12 13 14 15 16 17 18 19 20 21 22 23 24 25 26 27 28 29 30 31 32 33 34 35 36 37 38 39 40 41 42 43 44 45 46 47 48 49 50 51 52 53 54 55 56 57 58 59 60 61 62 63 </DataArray>
<DataArray type="Int32" Name="offsets" format="ascii">
4 8 12 16 20 24 28 32 36 40 44 48 52 56 60 64 </DataArray>
<DataArray type="UInt8" Name="types" format="ascii">
9 9 9 9 9 9 9 9 9 9 9 9 9 9 9 9 </DataArray>
</Cells>
<CellData Scalars="number_density">
<DataArray type="Float32" Name="number_density" format="ascii">
5.8832e+12 7.9232e+12 8.1136e+12 6.4128e+12 6.9712e+12 1.57536e+13 1.77584e+13 8.5136e+12 7.1856e+12 1.73184e+13 1.87328e+13 8.1264e+12 6.2672e+12 9.0976e+12 9.2064e+12 6.736e+12 </DataArray>
<DataArray type="Float32" Name="temperature" format="ascii">
804.047 1097.42 1117.83 750.99 1173.37 1831.25 1791.84 1041.44 1186.66 1916.93 1876.21 1073.1 807.111 1159.44 1123.64 744.94 </DataArray>
<DataArray type="Float32" Name="velocity" format="ascii">
568.261 690.573 578.685 469.458 722.761 732.539 504.375 578.481 668.895 563.177 311.202 561.503 502.216 507.126 483.694 472.297 </DataArray>
</CellData>
<PointData Scalars="number_density">
<DataArray type="Float32" Name="number_density" format="ascii">
5.8832e+12 6.9032e+12 9.1328e+12 6.4272e+12 6.9032e+12 8.0184e+12 1.23872e+13 9.1328e+12 8.0184e+12 7.2632e+12 1.01996e+13 1.23872e+13 7.2632e+12 6.4128e+12 7.4632e+12 1.01996e+13 6.4272e+12 9.1328e+12 1.18072e+13 7.0784e+12 9.1328e+12 1.23872e+13 1.73908e+13 1.18072e+13 1.23872e+13 1.01996e+13 1.32828e+13 1.73908e+13 1.01996e+13 7.4632e+12 8.32e+12 1.32828e+13 7.0784e+12 1.18072e+13 9.9672e+12 6.7264e+12 1.18072e+13 1.73908e+13 1.35888e+13 9.9672e+12 1.73908e+13 1.32828e+13 1.07004e+13 1.35888e+13 1.32828e+13 8.32e+12 7.4312e+12 1.07004e+13 6.7264e+12 9.9672e+12 7.6824e+12 6.2672e+12 9.9672e+12 1.35888e+13 9.152e+12 7.6824e+12 1.35888e+13 1.07004e+13 7.9712e+12 9.152e+12 1.07004e+13 7.4312e+12 6.736e+12 7.9712e+12 </DataArray>
<DataArray type="Float32" Name="temperature" format="ascii">
804.047 950.732 1226.52 988.707 950.732 1107.62 1459.58 1226.52 1107.62 934.411 1175.52 1459.58 934.411 750.99 896.216 1175.52 988.707 1226.52 1527.05 1180.02 1226.52 1459.58 1854.06 1527.05 1459.58 1175.52 1445.65 1854.06 1175.52 896.216 1057.27 1445.65 1180.02 1527.05 1267.53 996.887 1527.05 1854.06 1519.05 1267.53 1854.06 1445.65 1204.47 1519.05 1445.65 1057.27 909.021 1204.47 996.887 1267.53 983.273 807.111 1267.53 1519.05 1141.54 983.273 1519.05 1204.47 934.292 1141.54 1204.47 909.021 744.94 934.292 </DataArray>
<DataArray type="Float32" Name="velocity" format="ascii">
568.261 624.991 666.487 639.275 624.991 582.246 540.373 666.487 582.246 509.12 505.765 540.373 509.12 469.458 516.901 505.765 639.275 666.487 613.388 658.91 666.487 540.373 221.783 613.388 540.373 505.765 387.554 221.783 505.765 516.901 521.845 387.554 658.91 613.388 542.382 577.349 613.388 221.783 303.703 542.382 221.783 387.554 435.122 303.703 387.554 521.845 506.305 435.122 577.349 542.382 497.637 502.216 542.382 303.703 410.617 497.637 303.703 435.122 468.032 410.617 435.122 506.305 472.297 468.032 </DataArray>
</PointData>
</Piece>
</UnstructuredGrid>
</VTKFile>
