<VTKFile type="UnstructuredGrid" version="0.1" byte_order="LittleEndian">
<UnstructuredGrid>
<Piece NumberOfPoints="64" NumberOfCells="16">
<Points>
<DataArray type="Float32" NumberOfComponents="3" format="ascii">
0 0 0 0.25 0 0 0.25 0.25 0 0 0.25 0 0.25 0 0 0.5 0 0 0.5 0.25 0 0.25 0.25 0 0.5 0 0 0.75 0 0 0.75 0.25 0 0.5 0.25 0 0.75 0 0 1 0 0 1 0.25 0 0.75 0.25 0 0 0.25 0 0.25 0.25 0 0.25 0.5 0 0 0.5 0 0.25 0.25 0 0.5 0.25 0 0.5 0.5 0 0.25 0.5 0 0.5 0.25 0 0.75 0.25 0 0.75 0.5 0 0.5 0.5 0 0.75 0.25 0 1 0.25 0 1 0.5 0 0.75 0.5 0 0 0.5 0 0.25 0.5 0 0.25 0.75 0 0 0.75 0 0.25 0.5 0 0.5 0.5 0 0.5 0.75 0 0.25 0.75 0 0.5 0.5 0 0.75 0.5 0 0.75 0.75 0 0.5 0.75 0 0.75 0.5 0 1 0.5 0 1 0.75 0 0.75 0.75 0 0 0.75 0 0.25 0.75 0 0.25 1 0 0 1 0 0.25 0.75 0 0.5 0.75 0 0.5 1 0 0.25 1 0 0.5 0.75 0 0.75 0.75 0 0.75 1 0 0.5 1 0 0.75 0.75 0 1 0.75 0 1 1 0 0.75 1 0 </DataArray>
</Points>
<Cells>
<DataArray type="Int32" Name="connectivity" format="ascii">
0 1 2 3 4 5 6 7 8 9 10 11 12 13 14 15 16 17 18 19 20 21 22 23 24 25 26 27 28 29 30 31 32 33 34 35 36 37 38 39 40 41 42 43 44 45 46 47 48 49 50 51 52 53 54 55 56 57 58 59 60 61 62 63 </DataArray>
<DataArray type="Int32" Name="offsets" format="ascii">
4 8 12 16 20 24 28 32 36 40 44 48 52 56 60 64 </DataArray>
<DataArray type="UInt8" Name="types" format="ascii">
9 9 9 9 9 9 9 9 9 9 9 9 9 9 9 9 </DataArray>
</Cells>
<CellData Scalars="number_density">
<DataArray type="Float32" Name="number_density" format="ascii">
6.4928e+12 8.3472e+12 8.488e+12 6.9168e+12 7.5024e+12 1.47872e+13 1.64576e+13 8.8496e+12 7.6928e+12 1.6152e+13 1.71056e+13 8.448e+12 6.8432e+12 9.2384e+12 9.4256e+12 7.2528e+12 </DataArray>
<DataArray type="Float32" Name="temperature" format="ascii">
790.933 1045.12 1046.7 738.393 1110.17 1676.96 1631.18 994.478 1124.94 1733.24 1695.3 1018.25 786.974 1091.51 1064.73 732.522 </DataArray>
<DataArray type="Float32" Name="velocity" format="ascii">
535.752 640.29 545.345 441.135 680.169 675.771 466.979 539.994 630.889 523.488 297.886 527.907 476.048 472.692 452.694 438.7 </DataArray>
</CellData>
<PointData Scalars="number_density">
<DataArray type="Float32" Name="number_density" format="ascii">
6.4928e+12 7.42e+12 9.2824e+12 6.9976e+12 7.42e+12 8.4176e+12 1.202e+13 9.2824e+12 8.4176e+12 7.7024e+12 1.0178e+13 1.202e+13 7.7024e+12 6.9168e+12 7.8832e+12 1.0178e+13 6.9976e+12 9.2824e+12 1.15336e+13 7.5976e+12 9.2824e+12 1.202e+13 1.61256e+13 1.15336e+13 1.202e+13 1.0178e+13 1.27152e+13 1.61256e+13 1.0178e+13 7.8832e+12 8.6488e+12 1.27152e+13 7.5976e+12 1.15336e+13 9.9816e+12 7.268e+12 1.15336e+13 1.61256e+13 1.29804e+13 9.9816e+12 1.61256e+13 1.27152e+13 1.0558e+13 1.29804e+13 1.27152e+13 8.6488e+12 7.8504e+12 1.0558e+13 7.268e+12 9.9816e+12 8.0408e+12 6.8432e+12 9.9816e+12 1.29804e+13 9.332e+12 8.0408e+12 1.29804e+13 1.0558e+13 8.3392e+12 9.332e+12 1.0558e+13 7.8504e+12 7.2528e+12 8.3392e+12 </DataArray>
<DataArray type="Float32" Name="temperature" format="ascii">
790.933 918.026 1155.79 950.553 918.026 1045.91 1349.99 1155.79 1045.91 892.547 1102.69 1349.99 892.547 738.393 866.435 1102.69 950.553 1155.79 1411.33 1117.56 1155.79 1349.99 1684.17 1411.33 1349.99 1102.69 1334.8 1684.17 1102.69 866.435 1006.36 1334.8 1117.56 1411.33 1184.16 955.956 1411.33 1684.17 1396.19 1184.16 1684.17 1334.8 1127.7 1396.19 1334.8 1006.36 875.384 1127.7 955.956 1184.16 939.239 786.974 1184.16 1396.19 1078.12 939.239 1396.19 1127.7 898.626 1078.12 1127.7 875.384 732.522 898.626 </DataArray>
<DataArray type="Float32" Name="velocity" format="ascii">
535.752 583.16 620.019 601.194 583.16 548.055 503.906 620.019 548.055 477.739 471.274 503.906 477.739 441.135 483.411 471.274 601.194 620.019 572.969 623.472 620.019 503.906 199.979 572.969 503.906 471.274 365.73 199.979 471.274 483.411 491.862 365.73 623.472 572.969 507.572 545.88 572.969 199.979 287.921 507.572 199.979 365.73 407.227 287.921 365.73 491.862 472.65 407.227 545.88 507.572 466.17 476.048 507.572 287.921 389.875 466.17 287.921 407.227 435.867 389.875 407.227 472.65 438.7 435.867 </DataArray>
</PointData>
</Piece>
</UnstructuredGrid>
</VTKFile>
