<VTKFile type="UnstructuredGrid" version="0.1" byte_order="LittleEndian">
<UnstructuredGrid>
<Piece NumberOfPoints="64" NumberOfCells="16">
<Points>
<DataArray type="Float32" NumberOfComponents="3" format="ascii">
0 0 0 0.25 0 0 0.25 0.25 0 0 0.25 0 0.25 0 0 0.5 0 0 0.5 0.25 0 0.25 0.25 0 0.5 0 0 0.75 0 0 0.75 0.25 0 0.5 0.25 0 0.75 0 0 1 0 0 1 0.25 0 0.75 0.25 0 0 0.25 0 0.25 0.25 0 0.25 0.5 0 0 0.5 0 0.25 0.25 0 0.5 0.25 0 0.5 0.5 0 0.25 0.5 0 0.5 0.25 0 0.75 0.25 0 0.75 0.5 0 0.5 0.5 0 0.75 0.25 0 1 0.25 0 1 0.5 0 0.75 0.5 0 0 0.5 0 0.25 0.5 0 0.25 0.75 0 0 0.75 0 0.25 0.5 0 0.5 0.5 0 0.5 0.75 0 0.25 0.75 0 0.5 0.5 0 0.75 0.5 0 0.75 0.75 0 0.5 0.75 0 0.75 0.5 0 1 0.5 0 1 0.75 0 0.75 0.75 0 0 0.75 0 0.25 0.75 0 0.25 1 0 0 1 0 0.25 0.75 0 0.5 0.75 0 0.5 1 0 0.25 1 0 0.5 0.75 0 0.75 0.75 0 0.75 1 0 0.5 1 0 0.75 0.75 0 1 0.75 0 1 1 0 0.75 1 0 </DataArray>
</Points>
<Cells>
<DataArray type="Int32" Name="connectivity" format="ascii">
0 1 2 3 4 5 6 7 8 9 10 11 12 13 14 15 16 17 18 19 20 21 22 23 24 25 26 27 28 29 30 31 32 33 34 35 36 37 38 39 40 41 42 43 44 45 46 47 48 49 50 51 52 53 54 55 56 57 58 59 60 61 62 63 </DataArray>
<DataArray type="Int32" Name="offsets" format="ascii">
4 8 12 16 20 24 28 32 36 40 44 48 52 56 60 64 </DataArray>
<DataArray type="UInt8" Name="types" format="ascii">
9 9 9 9 9 9 9 9 9 9 9 9 9 9 9 9 </DataArray>
</Cells>
<CellData Scalars="number_density">
<DataArray type="Float32" Name="number_density" format="ascii">
9.912e+12 9.8496e+12 1.00128e+13 9.6288e+12 9.8352e+12 1.02688e+13 1.05696e+13 1.0048e+13 9.8016e+12 1.02464e+13 1.0432e+13 9.912e+12 9.8048e+12 9.936e+12 9.9152e+12 9.8272e+12 </DataArray>
<DataArray type="Float32" Name="temperature" format="ascii">
697.926 721.003 721.973 701.522 729.047 762.12 760.416 724.329 719.86 767.608 760.9 723.708 700.546 717.098 726.527 682.507 </DataArray>
<DataArray type="Float32" Name="velocity" format="ascii">
156.237 171.182 152.953 126.887 185.163 160.078 115.222 143.38 173.847 118.912 70.85 149.248 141.213 137.105 129.861 118.672 </DataArray>
</CellData>
<PointData Scalars="number_density">
<DataArray type="Float32" Name="number_density" format="ascii">
9.912e+12 9.8808e+12 9.9664e+12 9.8736e+12 9.8808e+12 9.9312e+12 1.01752e+13 9.9664e+12 9.9312e+12 9.8208e+12 1.00648e+13 1.01752e+13 9.8208e+12 9.6288e+12 9.8384e+12 1.00648e+13 9.8736e+12 9.9664e+12 1.0038e+13 9.8184e+12 9.9664e+12 1.01752e+13 1.03792e+13 1.0038e+13 1.01752e+13 1.00648e+13 1.02404e+13 1.03792e+13 1.00648e+13 9.8384e+12 9.98e+12 1.02404e+13 9.8184e+12 1.0038e+13 9.9472e+12 9.8032e+12 1.0038e+13 1.03792e+13 1.01324e+13 9.9472e+12 1.03792e+13 1.02404e+13 1.00216e+13 1.01324e+13 1.02404e+13 9.98e+12 9.8696e+12 1.00216e+13 9.8032e+12 9.9472e+12 9.8704e+12 9.8048e+12 9.9472e+12 1.01324e+13 9.9256e+12 9.8704e+12 1.01324e+13 1.00216e+13 9.8712e+12 9.9256e+12 1.00216e+13 9.8696e+12 9.8272e+12 9.8712e+12 </DataArray>
<DataArray type="Float32" Name="temperature" format="ascii">
697.926 709.464 727.524 713.486 709.464 721.488 741.378 727.524 721.488 711.748 727.06 741.378 711.748 701.522 712.926 727.06 713.486 727.524 744.659 724.454 727.524 741.378 762.761 744.659 741.378 727.06 742.338 762.761 727.06 712.926 724.018 742.338 724.454 744.659 726.278 710.203 744.659 762.761 743.033 726.278 762.761 742.338 723.411 743.033 742.338 724.018 703.107 723.411 710.203 726.278 708.822 700.546 726.278 743.033 721.813 708.822 743.033 723.411 704.517 721.813 723.411 703.107 682.507 704.517 </DataArray>
<DataArray type="Float32" Name="velocity" format="ascii">
156.237 160.267 161.676 167.973 160.267 154.087 131.375 161.676 154.087 135.584 125.061 131.375 135.584 126.887 130.867 125.061 167.973 161.676 145.144 173.201 161.676 131.375 42.4268 145.144 131.375 125.061 99.6886 42.4268 125.061 130.867 139.199 99.6886 173.201 145.144 136.022 155.066 145.144 42.4268 83.6356 136.022 42.4268 99.6886 108.64 83.6356 99.6886 139.199 130.105 108.64 155.066 136.022 135.067 141.213 136.022 83.6356 119.74 135.067 83.6356 108.64 120.098 119.74 108.64 130.105 118.672 120.098 </DataArray>
</PointData>
</Piece>
</UnstructuredGrid>
</VTKFile>
