<VTKFile type="UnstructuredGrid" version="0.1" byte_order="LittleEndian">
<UnstructuredGrid>
<Piece NumberOfPoints="64" NumberOfCells="16">
<Points>
<DataArray type="Float32" NumberOfComponents="3" format="ascii">
0 0 0 0.25 0 0 0.25 0.25 0 0 0.25 0 0.25 0 0 0.5 0 0 0.5 0.25 0 0.25 0.25 0 0.5 0 0 0.75 0 0 0.75 0.25 0 0.5 0.25 0 0.75 0 0 1 0 0 1 0.25 0 0.75 0.25 0 0 0.25 0 0.25 0.25 0 0.25 0.5 0 0 0.5 0 0.25 0.25 0 0.5 0.25 0 0.5 0.5 0 0.25 0.5 0 0.5 0.25 0 0.75 0.25 0 0.75 0.5 0 0.5 0.5 0 0.75 0.25 0 1 0.25 0 1 0.5 0 0.75 0.5 0 0 0.5 0 0.25 0.5 0 0.25 0.75 0 0 0.75 0 0.25 0.5 0 0.5 0.5 0 0.5 0.75 0 0.25 0.75 0 0.5 0.5 0 0.75 0.5 0 0.75 0.75 0 0.5 0.75 0 0.75 0.5 0 1 0.5 0 1 0.75 0 0.75 0.75 0 0 0.75 0 0.25 0.75 0 0.25 1 0 0 1 0 0.25 0.75 0 0.5 0.75 0 0.5 1 0 0.25 1 0 0.5 0.75 0 0.75 0.75 0 0.75 1 0 0.5 1 0 0.75 0.75 0 1 0.75 0 1 1 0 0.75 1 0 </DataArray>
</Points>
<Cells>
<DataArray type="Int32" Name="connectivity" format="ascii">
0 1 2 3 4 5 6 7 8 9 10 11 12 13 14 15 16 17 18 19 20 21 22 23 24 25 26 27 28 29 30 31 32 33 34 35 36 37 38 39 40 41 42 43 44 45 46 47 48 49 50 51 52 53 54 55 56 57 58 59 60 61 62 63 </DataArray>
<DataArray type="Int32" Name="offsets" format="ascii">
4 8 12 16 20 24 28 32 36 40 44 48 52 56 60 64 </DataArray>
<DataArray type="UInt8" Name="types" format="ascii">
9 9 9 9 9 9 9 9 9 9 9 9 9 9 9 9 </DataArray>
</Cells>
<CellData Scalars="number_density">
<DataArray type="Float32" Name="number_density" format="ascii">
9.8032e+12 9.824e+12 9.9936e+12 9.5216e+12 9.8096e+12 1.03968e+13 1.06816e+13 1.00512e+13 9.7552e+12 1.03344e+13 1.064e+13 9.888e+12 9.7072e+12 9.952e+12 9.9072e+12 9.7344e+12 </DataArray>
<DataArray type="Float32" Name="temperature" format="ascii">
699.87 732.76 733.886 700.255 742.064 786.797 784.964 732.61 729.277 796.171 793.263 730.539 701.64 727.542 735.134 682.621 </DataArray>
<DataArray type="Float32" Name="velocity" format="ascii">
184.599 203.441 183.079 147.367 220.984 194.161 137.573 170.952 210.17 144.234 87.6901 177.608 166.877 164.072 152.258 141.04 </DataArray>
</CellData>
<PointData Scalars="number_density">
<DataArray type="Float32" Name="number_density" format="ascii">
9.8032e+12 9.8136e+12 9.9584e+12 9.8064e+12 9.8136e+12 9.9088e+12 1.0224e+13 9.9584e+12 9.9088e+12 9.7576e+12 1.0062e+13 1.0224e+13 9.7576e+12 9.5216e+12 9.7864e+12 1.0062e+13 9.8064e+12 9.9584e+12 1.0074e+13 9.7824e+12 9.9584e+12 1.0224e+13 1.05132e+13 1.0074e+13 1.0224e+13 1.0062e+13 1.03152e+13 1.05132e+13 1.0062e+13 9.7864e+12 9.9696e+12 1.03152e+13 9.7824e+12 1.0074e+13 9.9372e+12 9.7312e+12 1.0074e+13 1.05132e+13 1.02084e+13 9.9372e+12 1.05132e+13 1.03152e+13 1.00424e+13 1.02084e+13 1.03152e+13 9.9696e+12 9.8112e+12 1.00424e+13 9.7312e+12 9.9372e+12 9.8296e+12 9.7072e+12 9.9372e+12 1.02084e+13 9.9296e+12 9.8296e+12 1.02084e+13 1.00424e+13 9.8208e+12 9.9296e+12 1.00424e+13 9.8112e+12 9.7344e+12 9.8208e+12 </DataArray>
<DataArray type="Float32" Name="temperature" format="ascii">
699.87 716.315 740.373 720.967 716.315 733.323 759.602 740.373 733.323 717.071 737.929 759.602 717.071 700.255 716.433 737.929 720.967 740.373 763.577 735.671 740.373 759.602 790.299 763.577 759.602 737.929 760.344 790.299 737.929 716.433 731.574 760.344 735.671 763.577 738.658 715.459 763.577 790.299 763.028 738.658 790.299 760.344 735.389 763.028 760.344 731.574 706.58 735.389 715.459 738.658 714.591 701.64 738.658 763.028 731.338 714.591 763.028 735.389 708.878 731.338 735.389 706.58 682.621 708.878 </DataArray>
<DataArray type="Float32" Name="velocity" format="ascii">
184.599 190.181 193.384 199.63 190.181 183.57 156.785 193.384 183.57 159.577 148.562 156.785 159.577 147.367 154.791 148.562 199.63 193.384 175.154 207.963 193.384 156.785 50.4976 175.154 156.785 148.562 119.883 50.4976 148.562 154.791 165.511 119.883 207.963 175.154 163.144 185.489 175.154 50.4976 99.5884 163.144 50.4976 119.883 129.614 99.5884 119.883 165.511 154.78 129.614 185.489 163.144 160.663 166.877 163.144 99.5884 141.653 160.663 99.5884 129.614 141.715 141.653 129.614 154.78 141.04 141.715 </DataArray>
</PointData>
</Piece>
</UnstructuredGrid>
</VTKFile>
