<VTKFile type="UnstructuredGrid" version="0.1" byte_order="LittleEndian">
<UnstructuredGrid>
<Piece NumberOfPoints="64" NumberOfCells="16">
<Points>
<DataArray type="Float32" NumberOfComponents="3" format="ascii">
0 0 0 0.25 0 0 0.25 0.25 0 0 0.25 0 0.25 0 0 0.5 0 0 0.5 0.25 0 0.25 0.25 0 0.5 0 0 0.75 0 0 0.75 0.25 0 0.5 0.25 0 0.75 0 0 1 0 0 1 0.25 0 0.75 0.25 0 0 0.25 0 0.25 0.25 0 0.25 0.5 0 0 0.5 0 0.25 0.25 0 0.5 0.25 0 0.5 0.5 0 0.25 0.5 0 0.5 0.25 0 0.75 0.25 0 0.75 0.5 0 0.5 0.5 0 0.75 0.25 0 1 0.25 0 1 0.5 0 0.75 0.5 0 0 0.5 0 0.25 0.5 0 0.25 0.75 0 0 0.75 0 0.25 0.5 0 0.5 0.5 0 0.5 0.75 0 0.25 0.75 0 0.5 0.5 0 0.75 0.5 0 0.75 0.75 0 0.5 0.75 0 0.75 0.5 0 1 0.5 0 1 0.75 0 0.75 0.75 0 0 0.75 0 0.25 0.75 0 0.25 1 0 0 1 0 0.25 0.75 0 0.5 0.75 0 0.5 1 0 0.25 1 0 0.5 0.75 0 0.75 0.75 0 0.75 1 0 0.5 1 0 0.75 0.75 0 1 0.75 0 1 1 0 0.75 1 0 </DataArray>
</Points>
<Cells>
<DataArray type="Int32" Name="connectivity" format="ascii">
0 1 2 3 4 5 6 7 8 9 10 11 12 13 14 15 16 17 18 19 20 21 22 23 24 25 26 27 28 29 30 31 32 33 34 35 36 37 38 39 40 41 42 43 44 45 46 47 48 49 50 51 52 53 54 55 56 57 58 59 60 61 62 63 </DataArray>
<DataArray type="Int32" Name="offsets" format="ascii">
4 8 12 16 20 24 28 32 36 40 44 48 52 56 60 64 </DataArray>
<DataArray type="UInt8" Name="types" format="ascii">
9 9 9 9 9 9 9 9 9 9 9 9 9 9 9 9 </DataArray>
</Cells>
<CellData Scalars="number_density">
<DataArray type="Float32" Name="number_density" format="ascii">
9.3824e+12 9.6816e+12 9.8672e+12 9.184e+12 9.5872e+12 1.09008e+13 1.13264e+13 9.936e+12 9.5472e+12 1.09968e+13 1.12048e+13 9.7936e+12 9.3376e+12 9.8816e+12 9.9264e+12 9.4464e+12 </DataArray>
<DataArray type="Float32" Name="temperature" format="ascii">
707.446 777.907 771.346 702.004 787.269 900.81 890.514 763.044 781.207 913.624 896.732 759.964 709.398 773.586 774.702 689.435 </DataArray>
<DataArray type="Float32" Name="velocity" format="ascii">
264.601 298.251 269.909 217.727 324.982 289.151 205.04 251.888 308.301 218.546 135.192 259.446 238.788 238.44 222.331 207.544 </DataArray>
</CellData>
<PointData Scalars="number_density">
<DataArray type="Float32" Name="number_density" format="ascii">
9.3824e+12 9.532e+12 9.888e+12 9.4848e+12 9.532e+12 9.7744e+12 1.0444e+13 9.888e+12 9.7744e+12 9.5256e+12 1.00784e+13 1.0444e+13 9.5256e+12 9.184e+12 9.56e+12 1.00784e+13 9.4848e+12 9.888e+12 1.0258e+13 9.5672e+12 9.888e+12 1.0444e+13 1.11072e+13 1.0258e+13 1.0444e+13 1.00784e+13 1.05652e+13 1.11072e+13 1.00784e+13 9.56e+12 9.8648e+12 1.05652e+13 9.5672e+12 1.0258e+13 9.9408e+12 9.4424e+12 1.0258e+13 1.11072e+13 1.05024e+13 9.9408e+12 1.11072e+13 1.05652e+13 1.00928e+13 1.05024e+13 1.05652e+13 9.8648e+12 9.62e+12 1.00928e+13 9.4424e+12 9.9408e+12 9.6096e+12 9.3376e+12 9.9408e+12 1.05024e+13 9.904e+12 9.6096e+12 1.05024e+13 1.00928e+13 9.6864e+12 9.904e+12 1.00928e+13 9.62e+12 9.4464e+12 9.6864e+12 </DataArray>
<DataArray type="Float32" Name="temperature" format="ascii">
707.446 742.676 793.358 747.358 742.676 774.627 835.144 793.358 774.627 736.675 781.727 835.144 736.675 702.004 732.524 781.727 747.358 793.358 845.727 784.238 793.358 835.144 900.42 845.727 835.144 781.727 827.564 900.42 781.727 732.524 761.504 827.564 784.238 845.727 794.454 745.303 845.727 900.42 839.661 794.454 900.42 827.564 780.208 839.661 827.564 761.504 724.699 780.208 745.303 794.454 741.492 709.398 794.454 839.661 774.144 741.492 839.661 780.208 732.068 774.144 780.208 724.699 689.435 732.068 </DataArray>
<DataArray type="Float32" Name="velocity" format="ascii">
264.601 276.892 284.518 290.332 276.892 268.117 231.646 284.518 268.117 236.116 220.398 231.646 236.116 217.727 228.523 220.398 290.332 284.518 260.374 305.047 284.518 231.646 76.9704 260.374 231.646 220.398 175.875 76.9704 220.398 228.523 241.976 175.875 305.047 260.374 239.712 269.079 260.374 76.9704 145.413 239.712 76.9704 175.875 191.797 145.413 175.875 241.976 227.147 191.797 269.079 239.712 232.68 238.788 239.712 145.413 204.492 232.68 145.413 191.797 207.859 204.492 191.797 227.147 207.544 207.859 </DataArray>
</PointData>
</Piece>
</UnstructuredGrid>
</VTKFile>
