<VTKFile type="UnstructuredGrid" version="0.1" byte_order="LittleEndian">
<UnstructuredGrid>
<Piece NumberOfPoints="64" NumberOfCells="16">
<Points>
<DataArray type="Float32" NumberOfComponents="3" format="ascii">
0 0 0 0.25 0 0 0.25 0.25 0 0 0.25 0 0.25 0 0 0.5 0 0 0.5 0.25 0 0.25 0.25 0 0.5 0 0 0.75 0 0 0.75 0.25 0 0.5 0.25 0 0.75 0 0 1 0 0 1 0.25 0 0.75 0.25 0 0 0.25 0 0.25 0.25 0 0.25 0.5 0 0 0.5 0 0.25 0.25 0 0.5 0.25 0 0.5 0.5 0 0.25 0.5 0 0.5 0.25 0 0.75 0.25 0 0.75 0.5 0 0.5 0.5 0 0.75 0.25 0 1 0.25 0 1 0.5 0 0.75 0.5 0 0 0.5 0 0.25 0.5 0 0.25 0.75 0 0 0.75 0 0.25 0.5 0 0.5 0.5 0 0.5 0.75 0 0.25 0.75 0 0.5 0.5 0 0.75 0.5 0 0.75 0.75 0 0.5 0.75 0 0.75 0.5 0 1 0.5 0 1 0.75 0 0.75 0.75 0 0 0.75 0 0.25 0.75 0 0.25 1 0 0 1 0 0.25 0.75 0 0.5 0.75 0 0.5 1 0 0.25 1 0 0.5 0.75 0 0.75 0.75 0 0.75 1 0 0.5 1 0 0.75 0.75 0 1 0.75 0 1 1 0 0.75 1 0 </DataArray>
</Points>
<Cells>
<DataArray type="Int32" Name="connectivity" format="ascii">
0 1 2 3 4 5 6 7 8 9 10 11 12 13 14 15 16 17 18 19 20 21 22 23 24 25 26 27 28 29 30 31 32 33 34 35 36 37 38 39 40 41 42 43 44 45 46 47 48 49 50 51 52 53 54 55 56 57 58 59 60 61 62 63 </DataArray>
<DataArray type="Int32" Name="offsets" format="ascii">
4 8 12 16 20 24 28 32 36 40 44 48 52 56 60 64 </DataArray>
<DataArray type="UInt8" Name="types" format="ascii">
9 9 9 9 9 9 9 9 9 9 9 9 9 9 9 9 </DataArray>
</Cells>
<CellData Scalars="number_density">
<DataArray type="Float32" Name="number_density" format="ascii">
1.01312e+13 9.896e+12 1.00032e+13 9.8144e+12 9.9632e+12 1.0112e+13 1.03712e+13 1.0088e+13 9.8288e+12 9.9104e+12 1.008e+13 9.8496e+12 1.00032e+13 9.944e+12 9.9936e+12 1.00112e+13 </DataArray>
<DataArray type="Float32" Name="temperature" format="ascii">
695.341 704.912 698.543 706.247 703.864 706.41 712.748 712.242 698.036 710.567 708.167 703.375 700.435 692.248 711.67 684.418 </DataArray>
<DataArray type="Float32" Name="velocity" format="ascii">
59.9729 72.9022 59.4191 54.2611 75.0497 65.6562 50.3517 53.6463 69.16 45.2564 22.4842 60.7433 61.2087 58.41 54.826 46.4807 </DataArray>
</CellData>
<PointData Scalars="number_density">
<DataArray type="Float32" Name="number_density" format="ascii">
1.01312e+13 1.00136e+13 1.00256e+13 1.00472e+13 1.00136e+13 9.9496e+12 1.00956e+13 1.00256e+13 9.9496e+12 9.9088e+12 1.00692e+13 1.00956e+13 9.9088e+12 9.8144e+12 9.9512e+12 1.00692e+13 1.00472e+13 1.00256e+13 9.9536e+12 9.896e+12 1.00256e+13 1.00956e+13 1.01184e+13 9.9536e+12 1.00956e+13 1.00692e+13 1.00972e+13 1.01184e+13 1.00692e+13 9.9512e+12 9.9688e+12 1.00972e+13 9.896e+12 9.9536e+12 9.9216e+12 9.916e+12 9.9536e+12 1.01184e+13 9.982e+12 9.9216e+12 1.01184e+13 1.00972e+13 9.9836e+12 9.982e+12 1.00972e+13 9.9688e+12 9.9304e+12 9.9836e+12 9.916e+12 9.9216e+12 9.9736e+12 1.00032e+13 9.9216e+12 9.982e+12 9.9688e+12 9.9736e+12 9.982e+12 9.9836e+12 1.00024e+13 9.9688e+12 9.9836e+12 9.9304e+12 1.00112e+13 1.00024e+13 </DataArray>
<DataArray type="Float32" Name="temperature" format="ascii">
695.341 700.126 702.632 699.603 700.126 701.727 705.653 702.632 701.727 702.395 707.445 705.653 702.395 706.247 709.244 707.445 699.603 702.632 704.719 700.95 702.632 705.653 709.473 704.719 705.653 707.445 709.133 709.473 707.445 709.244 707.808 709.133 700.95 704.719 700.322 699.236 704.719 709.473 705.663 700.322 709.473 709.133 701.908 705.663 709.133 707.808 693.896 701.908 699.236 700.322 696.342 700.435 700.322 705.663 701.959 696.342 705.663 701.908 698.044 701.959 701.908 693.896 684.418 698.044 </DataArray>
<DataArray type="Float32" Name="velocity" format="ascii">
59.9729 65.1198 65.794 66.3605 65.1198 62.8113 54.2048 65.794 62.8113 55.5098 50.8975 54.2048 55.5098 54.2611 51.857 50.8975 66.3605 65.794 56.2276 67.6548 65.794 54.2048 17.5636 56.2276 54.2048 50.8975 38.5574 17.5636 50.8975 51.857 53.9762 38.5574 67.6548 56.2276 56.8257 64.9218 56.2276 17.5636 34.0571 56.8257 17.5636 38.5574 43.2613 34.0571 38.5574 53.9762 51.875 43.2613 64.9218 56.8257 58.1013 61.2087 56.8257 34.0571 49.0361 58.1013 34.0571 43.2613 49.3502 49.0361 43.2613 51.875 46.4807 49.3502 </DataArray>
</PointData>
</Piece>
</UnstructuredGrid>
</VTKFile>
