<VTKFile type="UnstructuredGrid" version="0.1" byte_order="LittleEndian">
<UnstructuredGrid>
<Piece NumberOfPoints="64" NumberOfCells="16">
<Points>
<DataArray type="Float32" NumberOfComponents="3" format="ascii">
0 0 0 0.25 0 0 0.25 0.25 0 0 0.25 0 0.25 0 0 0.5 0 0 0.5 0.25 0 0.25 0.25 0 0.5 0 0 0.75 0 0 0.75 0.25 0 0.5 0.25 0 0.75 0 0 1 0 0 1 0.25 0 0.75 0.25 0 0 0.25 0 0.25 0.25 0 0.25 0.5 0 0 0.5 0 0.25 0.25 0 0.5 0.25 0 0.5 0.5 0 0.25 0.5 0 0.5 0.25 0 0.75 0.25 0 0.75 0.5 0 0.5 0.5 0 0.75 0.25 0 1 0.25 0 1 0.5 0 0.75 0.5 0 0 0.5 0 0.25 0.5 0 0.25 0.75 0 0 0.75 0 0.25 0.5 0 0.5 0.5 0 0.5 0.75 0 0.25 0.75 0 0.5 0.5 0 0.75 0.5 0 0.75 0.75 0 0.5 0.75 0 0.75 0.5 0 1 0.5 0 1 0.75 0 0.75 0.75 0 0 0.75 0 0.25 0.75 0 0.25 1 0 0 1 0 0.25 0.75 0 0.5 0.75 0 0.5 1 0 0.25 1 0 0.5 0.75 0 0.75 0.75 0 0.75 1 0 0.5 1 0 0.75 0.75 0 1 0.75 0 1 1 0 0.75 1 0 </DataArray>
</Points>
<Cells>
<DataArray type="Int32" Name="connectivity" format="ascii">
0 1 2 3 4 5 6 7 8 9 10 11 12 13 14 15 16 17 18 19 20 21 22 23 24 25 26 27 28 29 30 31 32 33 34 35 36 37 38 39 40 41 42 43 44 45 46 47 48 49 50 51 52 53 54 55 56 57 58 59 60 61 62 63 </DataArray>
<DataArray type="Int32" Name="offsets" format="ascii">
4 8 12 16 20 24 28 32 36 40 44 48 52 56 60 64 </DataArray>
<DataArray type="UInt8" Name="types" format="ascii">
9 9 9 9 9 9 9 9 9 9 9 9 9 9 9 9 </DataArray>
</Cells>
<CellData Scalars="number_density">
<DataArray type="Float32" Name="number_density" format="ascii">
5.0096e+12 7.264e+12 7.3904e+12 5.6608e+12 6.0432e+12 1.69968e+13 2.0008e+13 7.9904e+12 6.3648e+12 1.91488e+13 2.17504e+13 7.4576e+12 5.3712e+12 8.7792e+12 8.8416e+12 5.9232e+12 </DataArray>
<DataArray type="Float32" Name="temperature" format="ascii">
832.418 1181.73 1226.14 767.49 1282.53 2081.86 2065.37 1136.99 1297.39 2201.39 2183.06 1150.25 826.661 1273.4 1220.28 774.483 </DataArray>
<DataArray type="Float32" Name="velocity" format="ascii">
614.063 755.788 621.241 504.188 777.247 801.908 549.086 631.524 720.126 602.041 312.326 600.797 529.265 550.199 518.752 514.321 </DataArray>
</CellData>
<PointData Scalars="number_density">
<DataArray type="Float32" Name="number_density" format="ascii">
5.0096e+12 6.1368e+12 8.8284e+12 5.5264e+12 6.1368e+12 7.3272e+12 1.29148e+13 8.8284e+12 7.3272e+12 6.5256e+12 1.02624e+13 1.29148e+13 6.5256e+12 5.6608e+12 6.8256e+12 1.02624e+13 5.5264e+12 8.8284e+12 1.21384e+13 6.204e+12 8.8284e+12 1.29148e+13 1.9476e+13 1.21384e+13 1.29148e+13 1.02624e+13 1.43016e+13 1.9476e+13 1.02624e+13 6.8256e+12 7.724e+12 1.43016e+13 6.204e+12 1.21384e+13 9.916e+12 5.868e+12 1.21384e+13 1.9476e+13 1.463e+13 9.916e+12 1.9476e+13 1.43016e+13 1.09932e+13 1.463e+13 1.43016e+13 7.724e+12 6.6904e+12 1.09932e+13 5.868e+12 9.916e+12 7.0752e+12 5.3712e+12 9.916e+12 1.463e+13 8.8104e+12 7.0752e+12 1.463e+13 1.09932e+13 7.3824e+12 8.8104e+12 1.09932e+13 6.6904e+12 5.9232e+12 7.3824e+12 </DataArray>
<DataArray type="Float32" Name="temperature" format="ascii">
832.418 1007.07 1344.63 1057.48 1007.07 1203.93 1638.77 1344.63 1203.93 996.816 1299 1638.77 996.816 767.49 952.242 1299 1057.48 1344.63 1715.79 1289.96 1344.63 1638.77 2132.92 1715.79 1638.77 1299 1633.92 2132.92 1299 952.242 1143.62 1633.92 1289.96 1715.79 1399.71 1062.02 1715.79 2132.92 1719.53 1399.71 2132.92 1633.92 1332.02 1719.53 1633.92 1143.62 962.366 1332.02 1062.02 1399.71 1050.03 826.661 1399.71 1719.53 1246.84 1050.03 1719.53 1332.02 997.384 1246.84 1332.02 962.366 774.483 997.384 </DataArray>
<DataArray type="Float32" Name="velocity" format="ascii">
614.063 681.201 726.905 690.314 681.201 625.682 588.017 726.905 625.682 546.96 548.79 588.017 546.96 504.188 561.972 548.79 690.314 726.905 661.274 702.29 726.905 588.017 255.414 661.274 588.017 548.79 409.236 255.414 548.79 561.972 557.419 409.236 702.29 661.274 583.14 617.603 661.274 255.414 317.547 583.14 255.414 409.236 465.506 317.547 409.236 557.419 546.811 465.506 617.603 583.14 532.978 529.265 583.14 317.547 433.912 532.978 317.547 465.506 507.688 433.912 465.506 546.811 514.321 507.688 </DataArray>
</PointData>
</Piece>
</UnstructuredGrid>
</VTKFile>
