<VTKFile type="UnstructuredGrid" version="0.1" byte_order="LittleEndian">
<UnstructuredGrid>
<Piece NumberOfPoints="64" NumberOfCells="16">
<Points>
<DataArray type="Float32" NumberOfComponents="3" format="ascii">
0 0 0 0.25 0 0 0.25 0.25 0 0 0.25 0 0.25 0 0 0.5 0 0 0.5 0.25 0 0.25 0.25 0 0.5 0 0 0.75 0 0 0.75 0.25 0 0.5 0.25 0 0.75 0 0 1 0 0 1 0.25 0 0.75 0.25 0 0 0.25 0 0.25 0.25 0 0.25 0.5 0 0 0.5 0 0.25 0.25 0 0.5 0.25 0 0.5 0.5 0 0.25 0.5 0 0.5 0.25 0 0.75 0.25 0 0.75 0.5 0 0.5 0.5 0 0.75 0.25 0 1 0.25 0 1 0.5 0 0.75 0.5 0 0 0.5 0 0.25 0.5 0 0.25 0.75 0 0 0.75 0 0.25 0.5 0 0.5 0.5 0 0.5 0.75 0 0.25 0.75 0 0.5 0.5 0 0.75 0.5 0 0.75 0.75 0 0.5 0.75 0 0.75 0.5 0 1 0.5 0 1 0.75 0 0.75 0.75 0 0 0.75 0 0.25 0.75 0 0.25 1 0 0 1 0 0.25 0.75 0 0.5 0.75 0 0.5 1 0 0.25 1 0 0.5 0.75 0 0.75 0.75 0 0.75 1 0 0.5 1 0 0.75 0.75 0 1 0.75 0 1 1 0 0.75 1 0 </DataArray>
</Points>
<Cells>
<DataArray type="Int32" Name="connectivity" format="ascii">
0 1 2 3 4 5 6 7 8 9 10 11 12 13 14 15 16 17 18 19 20 21 22 23 24 25 26 27 28 29 30 31 32 33 34 35 36 37 38 39 40 41 42 43 44 45 46 47 48 49 50 51 52 53 54 55 56 57 58 59 60 61 62 63 </DataArray>
<DataArray type="Int32" Name="offsets" format="ascii">
4 8 12 16 20 24 28 32 36 40 44 48 52 56 60 64 </DataArray>
<DataArray type="UInt8" Name="types" format="ascii">
9 9 9 9 9 9 9 9 9 9 9 9 9 9 9 9 </DataArray>
</Cells>
<CellData Scalars="number_density">
<DataArray type="Float32" Name="number_density" format="ascii">
7.6592e+12 8.9888e+12 9.0832e+12 7.8768e+12 8.3552e+12 1.32544e+13 1.4232e+13 9.3136e+12 8.5712e+12 1.38832e+13 1.44192e+13 9.0832e+12 7.816e+12 9.6096e+12 9.6752e+12 8.1792e+12 </DataArray>
<DataArray type="Float32" Name="temperature" format="ascii">
765.508 952.132 930.153 722.124 974.842 1366.54 1336.18 899.346 999.089 1412.11 1361.25 913.038 762.954 965.555 944.063 714.924 </DataArray>
<DataArray type="Float32" Name="velocity" format="ascii">
456.819 532.314 466.97 377.56 576.691 551.409 388.135 453.584 538.846 429.665 254.928 451.853 409.358 402.183 385.494 372.724 </DataArray>
</CellData>
<PointData Scalars="number_density">
<DataArray type="Float32" Name="number_density" format="ascii">
7.6592e+12 8.324e+12 9.5644e+12 8.0072e+12 8.324e+12 9.036e+12 1.13896e+13 9.5644e+12 9.036e+12 8.48e+12 1.01264e+13 1.13896e+13 8.48e+12 7.8768e+12 8.5952e+12 1.01264e+13 8.0072e+12 9.5644e+12 1.1016e+13 8.4632e+12 9.5644e+12 1.13896e+13 1.39472e+13 1.1016e+13 1.13896e+13 1.01264e+13 1.1762e+13 1.39472e+13 1.01264e+13 8.5952e+12 9.1984e+12 1.1762e+13 8.4632e+12 1.1016e+13 9.97e+12 8.1936e+12 1.1016e+13 1.39472e+13 1.18968e+13 9.97e+12 1.39472e+13 1.1762e+13 1.03392e+13 1.18968e+13 1.1762e+13 9.1984e+12 8.6312e+12 1.03392e+13 8.1936e+12 9.97e+12 8.7128e+12 7.816e+12 9.97e+12 1.18968e+13 9.6424e+12 8.7128e+12 1.18968e+13 1.03392e+13 8.9272e+12 9.6424e+12 1.03392e+13 8.6312e+12 8.1792e+12 8.9272e+12 </DataArray>
<DataArray type="Float32" Name="temperature" format="ascii">
765.508 858.82 1014.76 870.175 858.82 941.143 1146.25 1014.76 941.143 826.139 971.951 1146.25 826.139 722.124 810.735 971.951 870.175 1014.76 1188.15 986.965 1014.76 1146.25 1369.02 1188.15 1146.25 971.951 1127.45 1369.02 971.951 810.735 906.192 1127.45 986.965 1188.15 1034.93 881.022 1188.15 1369.02 1170.74 1034.93 1369.02 1127.45 983.319 1170.74 1127.45 906.192 813.981 983.319 881.022 1034.93 864.255 762.954 1034.93 1170.74 954.809 864.255 1170.74 983.319 829.494 954.809 983.319 813.981 714.924 829.494 </DataArray>
<DataArray type="Float32" Name="velocity" format="ascii">
456.819 488.583 515.617 510.375 488.583 467.248 420.275 515.617 467.248 408.738 396.416 420.275 408.738 377.56 407.461 396.416 510.375 515.617 480.022 533.28 515.617 420.275 157.661 480.022 420.275 396.416 312.843 157.661 396.416 407.461 422.496 312.843 533.28 480.022 427.676 466.956 480.022 157.661 249.703 427.676 157.661 312.843 344.151 249.703 312.843 422.496 402.365 344.151 466.956 427.676 397.763 409.358 427.676 249.703 341.239 397.763 249.703 344.151 368.212 341.239 344.151 402.365 372.724 368.212 </DataArray>
</PointData>
</Piece>
</UnstructuredGrid>
</VTKFile>
