<VTKFile type="UnstructuredGrid" version="0.1" byte_order="LittleEndian">
<UnstructuredGrid>
<Piece NumberOfPoints="64" NumberOfCells="16">
<Points>
<DataArray type="Float32" NumberOfComponents="3" format="ascii">
0 0 0 0.25 0 0 0.25 0.25 0 0 0.25 0 0.25 0 0 0.5 0 0 0.5 0.25 0 0.25 0.25 0 0.5 0 0 0.75 0 0 0.75 0.25 0 0.5 0.25 0 0.75 0 0 1 0 0 1 0.25 0 0.75 0.25 0 0 0.25 0 0.25 0.25 0 0.25 0.5 0 0 0.5 0 0.25 0.25 0 0.5 0.25 0 0.5 0.5 0 0.25 0.5 0 0.5 0.25 0 0.75 0.25 0 0.75 0.5 0 0.5 0.5 0 0.75 0.25 0 1 0.25 0 1 0.5 0 0.75 0.5 0 0 0.5 0 0.25 0.5 0 0.25 0.75 0 0 0.75 0 0.25 0.5 0 0.5 0.5 0 0.5 0.75 0 0.25 0.75 0 0.5 0.5 0 0.75 0.5 0 0.75 0.75 0 0.5 0.75 0 0.75 0.5 0 1 0.5 0 1 0.75 0 0.75 0.75 0 0 0.75 0 0.25 0.75 0 0.25 1 0 0 1 0 0.25 0.75 0 0.5 0.75 0 0.5 1 0 0.25 1 0 0.5 0.75 0 0.75 0.75 0 0.75 1 0 0.5 1 0 0.75 0.75 0 1 0.75 0 1 1 0 0.75 1 0 </DataArray>
</Points>
<Cells>
<DataArray type="Int32" Name="connectivity" format="ascii">
0 1 2 3 4 5 6 7 8 9 10 11 12 13 14 15 16 17 18 19 20 21 22 23 24 25 26 27 28 29 30 31 32 33 34 35 36 37 38 39 40 41 42 43 44 45 46 47 48 49 50 51 52 53 54 55 56 57 58 59 60 61 62 63 </DataArray>
<DataArray type="Int32" Name="offsets" format="ascii">
4 8 12 16 20 24 28 32 36 40 44 48 52 56 60 64 </DataArray>
<DataArray type="UInt8" Name="types" format="ascii">
9 9 9 9 9 9 9 9 9 9 9 9 9 9 9 9 </DataArray>
</Cells>
<CellData Scalars="number_density">
<DataArray type="Float32" Name="number_density" format="ascii">
4.1232e+12 6.5168e+12 6.7264e+12 4.8704e+12 5.184e+12 1.79488e+13 2.2304e+13 7.36e+12 5.4464e+12 2.09584e+13 2.51248e+13 6.9056e+12 4.6384e+12 8.2896e+12 8.5552e+12 5.048e+12 </DataArray>
<DataArray type="Float32" Name="temperature" format="ascii">
858.467 1281.54 1342.04 787.101 1395.7 2326.95 2375.17 1214.8 1413.72 2488.61 2519.61 1265.72 866.113 1392.58 1343.84 790.094 </DataArray>
<DataArray type="Float32" Name="velocity" format="ascii">
655.168 820.16 659.821 537.494 831.687 856.313 572.84 681.542 753.497 620.385 284.774 636.689 557.641 583.76 555.148 545.835 </DataArray>
</CellData>
<PointData Scalars="number_density">
<DataArray type="Float32" Name="number_density" format="ascii">
4.1232e+12 5.32e+12 8.4432e+12 4.6536e+12 5.32e+12 6.6216e+12 1.3374e+13 8.4432e+12 6.6216e+12 5.7984e+12 1.03152e+13 1.3374e+13 5.7984e+12 4.8704e+12 6.1152e+12 1.03152e+13 4.6536e+12 8.4432e+12 1.23844e+13 5.3152e+12 8.4432e+12 1.3374e+13 2.1584e+13 1.23844e+13 1.3374e+13 1.03152e+13 1.54236e+13 2.1584e+13 1.03152e+13 6.1152e+12 7.1328e+12 1.54236e+13 5.3152e+12 1.23844e+13 9.8332e+12 5.0424e+12 1.23844e+13 2.1584e+13 1.5732e+13 9.8332e+12 2.1584e+13 1.54236e+13 1.14084e+13 1.5732e+13 1.54236e+13 7.1328e+12 5.9768e+12 1.14084e+13 5.0424e+12 9.8332e+12 6.464e+12 4.6384e+12 9.8332e+12 1.5732e+13 8.4224e+12 6.464e+12 1.5732e+13 1.14084e+13 6.8016e+12 8.4224e+12 1.14084e+13 5.9768e+12 5.048e+12 6.8016e+12 </DataArray>
<DataArray type="Float32" Name="temperature" format="ascii">
858.467 1070 1465.67 1127.09 1070 1311.79 1831.43 1465.67 1311.79 1064.57 1429.78 1831.43 1064.57 787.101 1000.95 1429.78 1127.09 1465.67 1906.25 1404.71 1465.67 1831.43 2427.59 1906.25 1831.43 1429.78 1843.82 2427.59 1429.78 1000.95 1240.26 1843.82 1404.71 1906.25 1540.26 1139.92 1906.25 2427.59 1936.16 1540.26 2427.59 1843.82 1479.82 1936.16 1843.82 1240.26 1027.9 1479.82 1139.92 1540.26 1129.35 866.113 1540.26 1936.16 1368.21 1129.35 1936.16 1479.82 1066.97 1368.21 1479.82 1027.9 790.094 1066.97 </DataArray>
<DataArray type="Float32" Name="velocity" format="ascii">
655.168 735.344 782.2 738.093 735.344 663.68 629.001 782.2 663.68 582.608 584.428 629.001 582.608 537.494 604.935 584.428 738.093 782.2 695.183 738.002 782.2 629.001 288.452 695.183 629.001 584.428 419.073 288.452 584.428 604.935 587.327 419.073 738.002 695.183 612.682 649.187 695.183 288.452 324.865 612.682 288.452 419.073 486.278 324.865 419.073 587.327 581.047 486.278 649.187 612.682 564.496 557.641 612.682 324.865 451.917 564.496 324.865 486.278 542.941 451.917 486.278 581.047 545.835 542.941 </DataArray>
</PointData>
</Piece>
</UnstructuredGrid>
</VTKFile>
