<VTKFile type="UnstructuredGrid" version="0.1" byte_order="LittleEndian">
<UnstructuredGrid>
<Piece NumberOfPoints="64" NumberOfCells="16">
<Points>
<DataArray type="Float32" NumberOfComponents="3" format="ascii">
0 0 0 0.25 0 0 0.25 0.25 0 0 0.25 0 0.25 0 0 0.5 0 0 0.5 0.25 0 0.25 0.25 0 0.5 0 0 0.75 0 0 0.75 0.25 0 0.5 0.25 0 0.75 0 0 1 0 0 1 0.25 0 0.75 0.25 0 0 0.25 0 0.25 0.25 0 0.25 0.5 0 0 0.5 0 0.25 0.25 0 0.5 0.25 0 0.5 0.5 0 0.25 0.5 0 0.5 0.25 0 0.75 0.25 0 0.75 0.5 0 0.5 0.5 0 0.75 0.25 0 1 0.25 0 1 0.5 0 0.75 0.5 0 0 0.5 0 0.25 0.5 0 0.25 0.75 0 0 0.75 0 0.25 0.5 0 0.5 0.5 0 0.5 0.75 0 0.25 0.75 0 0.5 0.5 0 0.75 0.5 0 0.75 0.75 0 0.5 0.75 0 0.75 0.5 0 1 0.5 0 1 0.75 0 0.75 0.75 0 0 0.75 0 0.25 0.75 0 0.25 1 0 0 1 0 0.25 0.75 0 0.5 0.75 0 0.5 1 0 0.25 1 0 0.5 0.75 0 0.75 0.75 0 0.75 1 0 0.5 1 0 0.75 0.75 0 1 0.75 0 1 1 0 0.75 1 0 </DataArray>
</Points>
<Cells>
<DataArray type="Int32" Name="connectivity" format="ascii">
0 1 2 3 4 5 6 7 8 9 10 11 12 13 14 15 16 17 18 19 20 21 22 23 24 25 26 27 28 29 30 31 32 33 34 35 36 37 38 39 40 41 42 43 44 45 46 47 48 49 50 51 52 53 54 55 56 57 58 59 60 61 62 63 </DataArray>
<DataArray type="Int32" Name="offsets" format="ascii">
4 8 12 16 20 24 28 32 36 40 44 48 52 56 60 64 </DataArray>
<DataArray type="UInt8" Name="types" format="ascii">
9 9 9 9 9 9 9 9 9 9 9 9 9 9 9 9 </DataArray>
</Cells>
<CellData Scalars="number_density">
<DataArray type="Float32" Name="number_density" format="ascii">
7.3568e+12 8.8432e+12 8.9648e+12 7.64e+12 8.1712e+12 1.36528e+13 1.47584e+13 9.1952e+12 8.3424e+12 1.44032e+13 1.4992e+13 8.92e+12 7.6112e+12 9.5728e+12 9.6032e+12 7.9728e+12 </DataArray>
<DataArray type="Float32" Name="temperature" format="ascii">
771.3 973.017 959.126 724.989 1007.09 1438.72 1404.99 918.799 1028.74 1489.06 1434.99 940.943 772.342 996.937 974.612 720.728 </DataArray>
<DataArray type="Float32" Name="velocity" format="ascii">
475.488 562.499 487.722 395.313 604.784 583.071 410.329 474.512 562.55 454.258 270.676 472.221 428.776 420.645 401.995 389.935 </DataArray>
</CellData>
<PointData Scalars="number_density">
<DataArray type="Float32" Name="number_density" format="ascii">
7.3568e+12 8.1e+12 9.506e+12 7.764e+12 8.1e+12 8.904e+12 1.15548e+13 9.506e+12 8.904e+12 8.3024e+12 1.01396e+13 1.15548e+13 8.3024e+12 7.64e+12 8.4176e+12 1.01396e+13 7.764e+12 9.506e+12 1.11424e+13 8.2568e+12 9.506e+12 1.15548e+13 1.44516e+13 1.11424e+13 1.15548e+13 1.01396e+13 1.19664e+13 1.44516e+13 1.01396e+13 8.4176e+12 9.0576e+12 1.19664e+13 8.2568e+12 1.11424e+13 9.9824e+12 7.9768e+12 1.11424e+13 1.44516e+13 1.21428e+13 9.9824e+12 1.44516e+13 1.19664e+13 1.0372e+13 1.21428e+13 1.19664e+13 9.0576e+12 8.4464e+12 1.0372e+13 7.9768e+12 9.9824e+12 8.592e+12 7.6112e+12 9.9824e+12 1.21428e+13 9.588e+12 8.592e+12 1.21428e+13 1.0372e+13 8.788e+12 9.588e+12 1.0372e+13 8.4464e+12 7.9728e+12 8.788e+12 </DataArray>
<DataArray type="Float32" Name="temperature" format="ascii">
771.3 872.159 1047.53 889.195 872.159 966.071 1193.96 1047.53 966.071 842.057 1001.98 1193.96 842.057 724.989 821.894 1001.98 889.195 1047.53 1240.9 1017.92 1047.53 1193.96 1441.94 1240.9 1193.96 1001.98 1174.93 1441.94 1001.98 821.894 929.871 1174.93 1017.92 1240.9 1071.77 900.543 1240.9 1441.94 1223.9 1071.77 1441.94 1174.93 1017.82 1223.9 1174.93 929.871 830.836 1017.82 900.543 1071.77 884.639 772.342 1071.77 1223.9 985.775 884.639 1223.9 1017.82 847.67 985.775 1017.82 830.836 720.728 847.67 </DataArray>
<DataArray type="Float32" Name="velocity" format="ascii">
475.488 513.055 543.041 533.978 513.055 489.295 442.325 543.041 489.295 427.709 416.378 442.325 427.709 395.313 426.892 416.378 533.978 543.041 504.712 557.378 543.041 442.325 167.191 504.712 442.325 416.378 327.332 167.191 416.378 426.892 440.808 327.332 557.378 504.712 448.759 487.946 504.712 167.191 260.636 448.759 167.191 327.332 361.505 260.636 327.332 440.808 420.664 361.505 487.946 448.759 416.848 428.776 448.759 260.636 353.737 416.848 260.636 361.505 385.476 353.737 361.505 420.664 389.935 385.476 </DataArray>
</PointData>
</Piece>
</UnstructuredGrid>
</VTKFile>
