<VTKFile type="UnstructuredGrid" version="0.1" byte_order="LittleEndian">
<UnstructuredGrid>
<Piece NumberOfPoints="64" NumberOfCells="16">
<Points>
<DataArray type="Float32" NumberOfComponents="3" format="ascii">
0 0 0 0.25 0 0 0.25 0.25 0 0 0.25 0 0.25 0 0 0.5 0 0 0.5 0.25 0 0.25 0.25 0 0.5 0 0 0.75 0 0 0.75 0.25 0 0.5 0.25 0 0.75 0 0 1 0 0 1 0.25 0 0.75 0.25 0 0 0.25 0 0.25 0.25 0 0.25 0.5 0 0 0.5 0 0.25 0.25 0 0.5 0.25 0 0.5 0.5 0 0.25 0.5 0 0.5 0.25 0 0.75 0.25 0 0.75 0.5 0 0.5 0.5 0 0.75 0.25 0 1 0.25 0 1 0.5 0 0.75 0.5 0 0 0.5 0 0.25 0.5 0 0.25 0.75 0 0 0.75 0 0.25 0.5 0 0.5 0.5 0 0.5 0.75 0 0.25 0.75 0 0.5 0.5 0 0.75 0.5 0 0.75 0.75 0 0.5 0.75 0 0.75 0.5 0 1 0.5 0 1 0.75 0 0.75 0.75 0 0 0.75 0 0.25 0.75 0 0.25 1 0 0 1 0 0.25 0.75 0 0.5 0.75 0 0.5 1 0 0.25 1 0 0.5 0.75 0 0.75 0.75 0 0.75 1 0 0.5 1 0 0.75 0.75 0 1 0.75 0 1 1 0 0.75 1 0 </DataArray>
</Points>
<Cells>
<DataArray type="Int32" Name="connectivity" format="ascii">
0 1 2 3 4 5 6 7 8 9 10 11 12 13 14 15 16 17 18 19 20 21 22 23 24 25 26 27 28 29 30 31 32 33 34 35 36 37 38 39 40 41 42 43 44 45 46 47 48 49 50 51 52 53 54 55 56 57 58 59 60 61 62 63 </DataArray>
<DataArray type="Int32" Name="offsets" format="ascii">
4 8 12 16 20 24 28 32 36 40 44 48 52 56 60 64 </DataArray>
<DataArray type="UInt8" Name="types" format="ascii">
9 9 9 9 9 9 9 9 9 9 9 9 9 9 9 9 </DataArray>
</Cells>
<CellData Scalars="number_density">
<DataArray type="Float32" Name="number_density" format="ascii">
7.0736e+12 8.712e+12 8.784e+12 7.4016e+12 7.9568e+12 1.40432e+13 1.53152e+13 9.0528e+12 8.16e+12 1.49952e+13 1.56048e+13 8.8192e+12 7.3664e+12 9.432e+12 9.5568e+12 7.7264e+12 </DataArray>
<DataArray type="Float32" Name="temperature" format="ascii">
776.466 1000.8 985.591 731.262 1038.83 1519.07 1473.92 943.13 1058.9 1566.83 1518.34 969.995 777.457 1026.14 1006.24 721.002 </DataArray>
<DataArray type="Float32" Name="velocity" format="ascii">
495.641 591.119 509.143 410.069 630.681 614.294 430.799 494.062 587.813 476.586 279.928 490.668 445.902 438.405 421.016 406.88 </DataArray>
</CellData>
<PointData Scalars="number_density">
<DataArray type="Float32" Name="number_density" format="ascii">
7.0736e+12 7.8928e+12 9.4464e+12 7.5152e+12 7.8928e+12 8.748e+12 1.17136e+13 9.4464e+12 8.748e+12 8.0928e+12 1.01384e+13 1.17136e+13 8.0928e+12 7.4016e+12 8.2272e+12 1.01384e+13 7.5152e+12 9.4464e+12 1.12888e+13 8.0584e+12 9.4464e+12 1.17136e+13 1.49896e+13 1.12888e+13 1.17136e+13 1.01384e+13 1.2198e+13 1.49896e+13 1.01384e+13 8.2272e+12 8.936e+12 1.2198e+13 8.0584e+12 1.12888e+13 9.9884e+12 7.7632e+12 1.12888e+13 1.49896e+13 1.23972e+13 9.9884e+12 1.49896e+13 1.2198e+13 1.04268e+13 1.23972e+13 1.2198e+13 8.936e+12 8.2728e+12 1.04268e+13 7.7632e+12 9.9884e+12 8.3992e+12 7.3664e+12 9.9884e+12 1.23972e+13 9.4944e+12 8.3992e+12 1.23972e+13 1.04268e+13 8.6416e+12 9.4944e+12 1.04268e+13 8.2728e+12 7.7264e+12 8.6416e+12 </DataArray>
<DataArray type="Float32" Name="temperature" format="ascii">
776.466 888.631 1083.79 907.649 888.631 993.193 1244.84 1083.79 993.193 858.427 1033.47 1244.84 858.427 731.262 837.196 1033.47 907.649 1083.79 1295.91 1048.86 1083.79 1244.84 1519.54 1295.91 1244.84 1033.47 1226.35 1519.54 1033.47 837.196 956.563 1226.35 1048.86 1295.91 1107.33 918.178 1295.91 1519.54 1279.39 1107.33 1519.54 1226.35 1053.89 1279.39 1226.35 956.563 845.498 1053.89 918.178 1107.33 901.799 777.457 1107.33 1279.39 1016.19 901.799 1279.39 1053.89 863.62 1016.19 1053.89 845.498 721.002 863.62 </DataArray>
<DataArray type="Float32" Name="velocity" format="ascii">
495.641 537.983 569.435 556.448 537.983 511.199 463.787 569.435 511.199 444.947 435.106 463.787 444.947 410.069 444.579 435.106 556.448 569.435 528.203 581.455 569.435 463.787 176.935 528.203 463.787 435.106 340.734 176.935 435.106 444.579 457.559 340.734 581.455 528.203 469.142 509.013 528.203 176.935 270.831 469.142 176.935 340.734 377.105 270.831 340.734 457.559 437.857 377.105 509.013 469.142 434.173 445.902 469.142 270.831 366.777 434.173 270.831 377.105 403.661 366.777 377.105 437.857 406.88 403.661 </DataArray>
</PointData>
</Piece>
</UnstructuredGrid>
</VTKFile>
