<VTKFile type="UnstructuredGrid" version="0.1" byte_order="LittleEndian">
<UnstructuredGrid>
<Piece NumberOfPoints="64" NumberOfCells="16">
<Points>
<DataArray type="Float32" NumberOfComponents="3" format="ascii">
0 0 0 0.25 0 0 0.25 0.25 0 0 0.25 0 0.25 0 0 0.5 0 0 0.5 0.25 0 0.25 0.25 0 0.5 0 0 0.75 0 0 0.75 0.25 0 0.5 0.25 0 0.75 0 0 1 0 0 1 0.25 0 0.75 0.25 0 0 0.25 0 0.25 0.25 0 0.25 0.5 0 0 0.5 0 0.25 0.25 0 0.5 0.25 0 0.5 0.5 0 0.25 0.5 0 0.5 0.25 0 0.75 0.25 0 0.75 0.5 0 0.5 0.5 0 0.75 0.25 0 1 0.25 0 1 0.5 0 0.75 0.5 0 0 0.5 0 0.25 0.5 0 0.25 0.75 0 0 0.75 0 0.25 0.5 0 0.5 0.5 0 0.5 0.75 0 0.25 0.75 0 0.5 0.5 0 0.75 0.5 0 0.75 0.75 0 0.5 0.75 0 0.75 0.5 0 1 0.5 0 1 0.75 0 0.75 0.75 0 0 0.75 0 0.25 0.75 0 0.25 1 0 0 1 0 0.25 0.75 0 0.5 0.75 0 0.5 1 0 0.25 1 0 0.5 0.75 0 0.75 0.75 0 0.75 1 0 0.5 1 0 0.75 0.75 0 1 0.75 0 1 1 0 0.75 1 0 </DataArray>
</Points>
<Cells>
<DataArray type="Int32" Name="connectivity" format="ascii">
0 1 2 3 4 5 6 7 8 9 10 11 12 13 14 15 16 17 18 19 20 21 22 23 24 25 26 27 28 29 30 31 32 33 34 35 36 37 38 39 40 41 42 43 44 45 46 47 48 49 50 51 52 53 54 55 56 57 58 59 60 61 62 63 </DataArray>
<DataArray type="Int32" Name="offsets" format="ascii">
4 8 12 16 20 24 28 32 36 40 44 48 52 56 60 64 </DataArray>
<DataArray type="UInt8" Name="types" format="ascii">
9 9 9 9 9 9 9 9 9 9 9 9 9 9 9 9 </DataArray>
</Cells>
<CellData Scalars="number_density">
<DataArray type="Float32" Name="number_density" format="ascii">
8.576e+12 9.4032e+12 9.5696e+12 8.656e+12 9.1296e+12 1.19248e+13 1.2472e+13 9.688e+12 9.104e+12 1.21792e+13 1.25584e+13 9.5296e+12 8.6848e+12 9.8368e+12 9.8064e+12 8.8816e+12 </DataArray>
<DataArray type="Float32" Name="temperature" format="ascii">
730.491 853.991 842.058 715.189 868.74 1106.78 1081.12 819.77 878.717 1139.77 1098.28 832.357 732.63 858.651 853.562 691.158 </DataArray>
<DataArray type="Float32" Name="velocity" format="ascii">
363.666 418.333 375.317 301.34 455.441 420.887 295.561 358.376 427.61 327.326 196.131 357.811 330.649 322.136 306.111 293.615 </DataArray>
</CellData>
<PointData Scalars="number_density">
<DataArray type="Float32" Name="number_density" format="ascii">
8.576e+12 8.9896e+12 9.7584e+12 8.8528e+12 8.9896e+12 9.4864e+12 1.08424e+13 9.7584e+12 9.4864e+12 9.1128e+12 1.00964e+13 1.08424e+13 9.1128e+12 8.656e+12 9.172e+12 1.00964e+13 8.8528e+12 9.7584e+12 1.05844e+13 9.1168e+12 9.7584e+12 1.08424e+13 1.22836e+13 1.05844e+13 1.08424e+13 1.00964e+13 1.1062e+13 1.22836e+13 1.00964e+13 9.172e+12 9.6088e+12 1.1062e+13 9.1168e+12 1.05844e+13 9.9512e+12 8.8944e+12 1.05844e+13 1.22836e+13 1.10952e+13 9.9512e+12 1.22836e+13 1.1062e+13 1.0194e+13 1.10952e+13 1.1062e+13 9.6088e+12 9.2056e+12 1.0194e+13 8.8944e+12 9.9512e+12 9.2608e+12 8.6848e+12 9.9512e+12 1.10952e+13 9.8216e+12 9.2608e+12 1.10952e+13 1.0194e+13 9.344e+12 9.8216e+12 1.0194e+13 9.2056e+12 8.8816e+12 9.344e+12 </DataArray>
<DataArray type="Float32" Name="temperature" format="ascii">
730.491 792.241 890.002 799.616 792.241 848.024 970.988 890.002 848.024 778.623 864.534 970.988 778.623 715.189 767.479 864.534 799.616 890.002 998.503 873.729 890.002 970.988 1106.49 998.503 970.988 864.534 957.881 1106.49 864.534 767.479 826.064 957.881 873.729 998.503 902.442 805.673 998.503 1106.49 987.566 902.442 1106.49 957.881 868.839 987.566 957.881 826.064 761.757 868.839 805.673 902.442 795.64 732.63 902.442 987.566 856.107 795.64 987.566 868.839 772.36 856.107 868.839 761.757 691.158 772.36 </DataArray>
<DataArray type="Float32" Name="velocity" format="ascii">
363.666 385.487 402.25 403.843 385.487 372.938 328.84 402.25 372.938 327.41 310.708 328.84 327.41 301.34 321.684 310.708 403.843 402.25 373.176 425.091 402.25 328.84 116.745 373.176 328.84 310.708 246.779 116.745 310.708 321.684 337.857 246.779 425.091 373.176 336.481 372.301 373.176 116.745 200.869 336.481 116.745 246.779 269.514 200.869 246.779 337.857 317.369 269.514 372.301 336.481 319.241 330.649 336.481 200.869 276.238 319.241 200.869 269.514 290.392 276.238 269.514 317.369 293.615 290.392 </DataArray>
</PointData>
</Piece>
</UnstructuredGrid>
</VTKFile>
