<VTKFile type="UnstructuredGrid" version="0.1" byte_order="LittleEndian">
<UnstructuredGrid>
<Piece NumberOfPoints="343" NumberOfCells="216">
<Points>
<DataArray type="Float32" NumberOfComponents="3" format="ascii">
-0.05 -0.05 -0.05 0.05 -0.05 -0.05 0.05 0.05 -0.05 -0.05 0.05 -0.05 -0.05 -0.05 0.05 0.05 -0.05 0.05 0.05 0.05 0.05 -0.05 0.05 0.05 -0.0333333 -0.05 -0.05 -0.0166667 -0.05 -0.05 0 -0.05 -0.05 0.0166667 -0.05 -0.05 0.0333333 -0.05 -0.05 0.05 -0.0333333 -0.05 0.05 -0.0166667 -0.05 0.05 0 -0.05 0.05 0.0166667 -0.05 0.05 0.0333333 -0.05 0.0333333 0.05 -0.05 0.0166667 0.05 -0.05 0 0.05 -0.05 -0.0166667 0.05 -0.05 -0.0333333 0.05 -0.05 -0.05 0.0333333 -0.05 -0.05 0.0166667 -0.05 -0.05 0 -0.05 -0.05 -0.0166667 -0.05 -0.05 -0.0333333 -0.05 -0.0333333 -0.05 0.05 -0.0166667 -0.05 0.05 0 -0.05 0.05 0.0166667 -0.05 0.05 0.0333333 -0.05 0.05 0.05 -0.0333333 0.05 0.05 -0.0166667 0.05 0.05 0 0.05 0.05 0.0166667 0.05 0.05 0.0333333 0.05 0.0333333 0.05 0.05 0.0166667 0.05 0.05 0 0.05 0.05 -0.0166667 0.05 0.05 -0.0333333 0.05 0.05 -0.05 0.0333333 0.05 -0.05 0.0166667 0.05 -0.05 0 0.05 -0.05 -0.0166667 0.05 -0.05 -0.0333333 0.05 -0.05 -0.05 -0.0333333 -0.05 -0.05 -0.0166667 -0.05 -0.05 0 -0.05 -0.05 0.0166667 -0.05 -0.05 0.0333333 0.05 -0.05 -0.0333333 0.05 -0.05 -0.0166667 0.05 -0.05 0 0.05 -0.05 0.0166667 0.05 -0.05 0.0333333 0.05 0.05 -0.0333333 0.05 0.05 -0.0166667 0.05 0.05 0 0.05 0.05 0.0166667 0.05 0.05 0.0333333 -0.05 0.05 -0.0333333 -0.05 0.05 -0.0166667 -0.05 0.05 0 -0.05 0.05 0.0166667 -0.05 0.05 0.0333333 -0.0333333 0.0333333 -0.05 -0.0333333 0.0166667 -0.05 -0.0333333 -3.55271e-18 -0.05 -0.0333333 -0.0166667 -0.05 -0.0333333 -0.0333333 -0.05 -0.0166667 0.0333333 -0.05 -0.0166667 0.0166667 -0.05 -0.0166667 -7.10543e-18 -0.05 -0.0166667 -0.0166667 -0.05 -0.0166667 -0.0333333 -0.05 1.77636e-18 0.0333333 -0.05 5.32907e-18 0.0166667 -0.05 3.55271e-18 -1.77636e-18 -0.05 7.10543e-18 -0.0166667 -0.05 3.55271e-18 -0.0333333 -0.05 0.0166667 0.0333333 -0.05 0.0166667 0.0166667 -0.05 0.0166667 -7.10543e-18 -0.05 0.0166667 -0.0166667 -0.05 0.0166667 -0.0333333 -0.05 0.0333333 0.0333333 -0.05 0.0333333 0.0166667 -0.05 0.0333333 -1.77636e-18 -0.05 0.0333333 -0.0166667 -0.05 0.0333333 -0.0333333 -0.05 -0.0333333 -0.0333333 0.05 -0.0333333 -0.0166667 0.05 -0.0333333 0 0.05 -0.0333333 0.0166667 0.05 -0.0333333 0.0333333 0.05 -0.0166667 -0.0333333 0.05 -0.0166667 -0.0166667 0.05 -0.0166667 0 0.05 -0.0166667 0.0166667 0.05 -0.0166667 0.0333333 0.05 0 -0.0333333 0.05 0 -0.0166667 0.05 0 0 0.05 0 0.0166667 0.05 0 0.0333333 0.05 0.0166667 -0.0333333 0.05 0.0166667 -0.0166667 0.05 0.0166667 0 0.05 0.0166667 0.0166667 0.05 0.0166667 0.0333333 0.05 0.0333333 -0.0333333 0.05 0.0333333 -0.0166667 0.05 0.0333333 1.77636e-18 0.05 0.0333333 0.0166667 0.05 0.0333333 0.0333333 0.05 -0.0333333 -0.05 -0.0333333 -0.0333333 -0.05 -0.0166667 -0.0333333 -0.05 0 -0.0333333 -0.05 0.0166667 -0.0333333 -0.05 0.0333333 -0.0166667 -0.05 -0.0333333 -0.0166667 -0.05 -0.0166667 -0.0166667 -0.05 0 -0.0166667 -0.05 0.0166667 -0.0166667 -0.05 0.0333333 0 -0.05 -0.0333333 0 -0.05 -0.0166667 0 -0.05 0 0 -0.05 0.0166667 0 -0.05 0.0333333 0.0166667 -0.05 -0.0333333 0.0166667 -0.05 -0.0166667 0.0166667 -0.05 0 0.0166667 -0.05 0.0166667 0.0166667 -0.05 0.0333333 0.0333333 -0.05 -0.0333333 0.0333333 -0.05 -0.0166667 0.0333333 -0.05 1.77636e-18 0.0333333 -0.05 0.0166667 0.0333333 -0.05 0.0333333 0.05 -0.0333333 -0.0333333 0.05 -0.0333333 -0.0166667 0.05 -0.0333333 0 0.05 -0.0333333 0.0166667 0.05 -0.0333333 0.0333333 0.05 -0.0166667 -0.0333333 0.05 -0.0166667 -0.0166667 0.05 -0.0166667 0 0.05 -0.0166667 0.0166667 0.05 -0.0166667 0.0333333 0.05 0 -0.0333333 0.05 0 -0.0166667 0.05 0 0 0.05 0 0.0166667 0.05 0 0.0333333 0.05 0.0166667 -0.0333333 0.05 0.0166667 -0.0166667 0.05 0.0166667 0 0.05 0.0166667 0.0166667 0.05 0.0166667 0.0333333 0.05 0.0333333 -0.0333333 0.05 0.0333333 -0.0166667 0.05 0.0333333 1.77636e-18 0.05 0.0333333 0.0166667 0.05 0.0333333 0.0333333 0.0333333 0.05 -0.0333333 0.0333333 0.05 -0.0166667 0.0333333 0.05 0 0.0333333 0.05 0.0166667 0.0333333 0.05 0.0333333 0.0166667 0.05 -0.0333333 0.0166667 0.05 -0.0166667 0.0166667 0.05 0 0.0166667 0.05 0.0166667 0.0166667 0.05 0.0333333 0 0.05 -0.0333333 0 0.05 -0.0166667 0 0.05 0 0 0.05 0.0166667 0 0.05 0.0333333 -0.0166667 0.05 -0.0333333 -0.0166667 0.05 -0.0166667 -0.0166667 0.05 0 -0.0166667 0.05 0.0166667 -0.0166667 0.05 0.0333333 -0.0333333 0.05 -0.0333333 -0.0333333 0.05 -0.0166667 -0.0333333 0.05 1.77636e-18 -0.0333333 0.05 0.0166667 -0.0333333 0.05 0.0333333 -0.05 0.0333333 -0.0333333 -0.05 0.0333333 -0.0166667 -0.05 0.0333333 0 -0.05 0.0333333 0.0166667 -0.05 0.0333333 0.0333333 -0.05 0.0166667 -0.0333333 -0.05 0.0166667 -0.0166667 -0.05 0.0166667 0 -0.05 0.0166667 0.0166667 -0.05 0.0166667 0.0333333 -0.05 0 -0.0333333 -0.05 0 -0.0166667 -0.05 0 0 -0.05 0 0.0166667 -0.05 0 0.0333333 -0.05 -0.0166667 -0.0333333 -0.05 -0.0166667 -0.0166667 -0.05 -0.0166667 0 -0.05 -0.0166667 0.0166667 -0.05 -0.0166667 0.0333333 -0.05 -0.0333333 -0.0333333 -0.05 -0.0333333 -0.0166667 -0.05 -0.0333333 1.77636e-18 -0.05 -0.0333333 0.0166667 -0.05 -0.0333333 0.0333333 -0.0333333 0.0333333 -0.0333333 -0.0333333 0.0333333 -0.0166667 -0.0333333 0.0333333 4.44089e-19 -0.0333333 0.0333333 0.0166667 -0.0333333 0.0333333 0.0333333 -0.0333333 0.0166667 -0.0333333 -0.0333333 0.0166667 -0.0166667 -0.0333333 0.0166667 -4.44089e-18 -0.0333333 0.0166667 0.0166667 -0.0333333 0.0166667 0.0333333 -0.0333333 -6.66134e-18 -0.0333333 -0.0333333 -9.76996e-18 -0.0166667 -0.0333333 -1.77636e-18 -1.77636e-18 -0.0333333 -1.77636e-18 0.0166667 -0.0333333 3.55271e-18 0.0333333 -0.0333333 -0.0166667 -0.0333333 -0.0333333 -0.0166667 -0.0166667 -0.0333333 -0.0166667 1.77636e-18 -0.0333333 -0.0166667 0.0166667 -0.0333333 -0.0166667 0.0333333 -0.0333333 -0.0333333 -0.0333333 -0.0333333 -0.0333333 -0.0166667 -0.0333333 -0.0333333 0 -0.0333333 -0.0333333 0.0166667 -0.0333333 -0.0333333 0.0333333 -0.0166667 0.0333333 -0.0333333 -0.0166667 0.0333333 -0.0166667 -0.0166667 0.0333333 2.66454e-18 -0.0166667 0.0333333 0.0166667 -0.0166667 0.0333333 0.0333333 -0.0166667 0.0166667 -0.0333333 -0.0166667 0.0166667 -0.0166667 -0.0166667 0.0166667 -1.77636e-18 -0.0166667 0.0166667 0.0166667 -0.0166667 0.0166667 0.0333333 -0.0166667 -1.06581e-17 -0.0333333 -0.0166667 -1.15463e-17 -0.0166667 -0.0166667 -3.55271e-18 0 -0.0166667 -8.88178e-18 0.0166667 -0.0166667 -1.77636e-18 0.0333333 -0.0166667 -0.0166667 -0.0333333 -0.0166667 -0.0166667 -0.0166667 -0.0166667 -0.0166667 3.55271e-18 -0.0166667 -0.0166667 0.0166667 -0.0166667 -0.0166667 0.0333333 -0.0166667 -0.0333333 -0.0333333 -0.0166667 -0.0333333 -0.0166667 -0.0166667 -0.0333333 0 -0.0166667 -0.0333333 0.0166667 -0.0166667 -0.0333333 0.0333333 3.44169e-18 0.0333333 -0.0333333 1.02141e-17 0.0333333 -0.0166667 2.66454e-18 0.0333333 -8.88178e-19 6.21725e-18 0.0333333 0.0166667 1.33227e-18 0.0333333 0.0333333 7.99361e-18 0.0166667 -0.0333333 8.43769e-18 0.0166667 -0.0166667 8.88178e-19 0.0166667 8.88178e-19 7.99361e-18 0.0166667 0.0166667 3.55271e-18 0.0166667 0.0333333 3.55271e-18 -1.77636e-18 -0.0333333 9.76996e-18 -9.76996e-18 -0.0166667 0 -8.88178e-19 -8.88178e-19 8.88178e-18 -8.88178e-18 0.0166667 1.77636e-18 -1.77636e-18 0.0333333 1.02141e-17 -0.0166667 -0.0333333 1.24345e-17 -0.0166667 -0.0166667 3.55271e-18 -0.0166667 -1.77636e-18 8.88178e-18 -0.0166667 0.0166667 3.55271e-18 -0.0166667 0.0333333 5.77316e-18 -0.0333333 -0.0333333 4.44089e-18 -0.0333333 -0.0166667 1.77636e-18 -0.0333333 1.77636e-18 5.32907e-18 -0.0333333 0.0166667 0 -0.0333333 0.0333333 0.0166667 0.0333333 -0.0333333 0.0166667 0.0333333 -0.0166667 0.0166667 0.0333333 -2.66454e-18 0.0166667 0.0333333 0.0166667 0.0166667 0.0333333 0.0333333 0.0166667 0.0166667 -0.0333333 0.0166667 0.0166667 -0.0166667 0.0166667 0.0166667 3.10862e-18 0.0166667 0.0166667 0.0166667 0.0166667 0.0166667 0.0333333 0.0166667 -1.24345e-17 -0.0333333 0.0166667 -1.37668e-17 -0.0166667 0.0166667 -3.55271e-18 -1.77636e-18 0.0166667 -6.21725e-18 0.0166667 0.0166667 -8.88178e-19 0.0333333 0.0166667 -0.0166667 -0.0333333 0.0166667 -0.0166667 -0.0166667 0.0166667 -0.0166667 2.66454e-18 0.0166667 -0.0166667 0.0166667 0.0166667 -0.0166667 0.0333333 0.0166667 -0.0333333 -0.0333333 0.0166667 -0.0333333 -0.0166667 0.0166667 -0.0333333 0 0.0166667 -0.0333333 0.0166667 0.0166667 -0.0333333 0.0333333 0.0333333 0.0333333 -0.0333333 0.0333333 0.0333333 -0.0166667 0.0333333 0.0333333 3.33067e-19 0.0333333 0.0333333 0.0166667 0.0333333 0.0333333 0.0333333 0.0333333 0.0166667 -0.0333333 0.0333333 0.0166667 -0.0166667 0.0333333 0.0166667 1.11022e-18 0.0333333 0.0166667 0.0166667 0.0333333 0.0166667 0.0333333 0.0333333 -4.44089e-18 -0.0333333 0.0333333 -4.21885e-18 -0.0166667 0.0333333 8.88178e-19 8.88178e-19 0.0333333 -1.33227e-18 0.0166667 0.0333333 3.55271e-18 0.0333333 0.0333333 -0.0166667 -0.0333333 0.0333333 -0.0166667 -0.0166667 0.0333333 -0.0166667 2.22045e-18 0.0333333 -0.0166667 0.0166667 0.0333333 -0.0166667 0.0333333 0.0333333 -0.0333333 -0.0333333 0.0333333 -0.0333333 -0.0166667 0.0333333 -0.0333333 2.22045e-18 0.0333333 -0.0333333 0.0166667 0.0333333 -0.0333333 0.0333333 </DataArray>
</Points>
<Cells>
<DataArray type="Int32" Name="connectivity" format="ascii">
68 22 3 23 218 188 63 193 218 188 63 193 219 189 64 194 219 189 64 194 220 190 65 195 220 190 65 195 221 191 66 196 221 191 66 196 222 192 67 197 222 192 67 197 97 42 7 43 69 68 23 24 223 218 193 198 223 218 193 198 224 219 194 199 224 219 194 199 225 220 195 200 225 220 195 200 226 221 196 201 226 221 196 201 227 222 197 202 227 222 197 202 96 97 43 44 70 69 24 25 228 223 198 203 228 223 198 203 229 224 199 204 229 224 199 204 230 225 200 205 230 225 200 205 231 226 201 206 231 226 201 206 232 227 202 207 232 227 202 207 95 96 44 45 71 70 25 26 233 228 203 208 233 228 203 208 234 229 204 209 234 229 204 209 235 230 205 210 235 230 205 210 236 231 206 211 236 231 206 211 237 232 207 212 237 232 207 212 94 95 45 46 72 71 26 27 238 233 208 213 238 233 208 213 239 234 209 214 239 234 209 214 240 235 210 215 240 235 210 215 241 236 211 216 241 236 211 216 242 237 212 217 242 237 212 217 93 94 46 47 8 72 27 0 118 238 213 48 118 238 213 48 119 239 214 49 119 239 214 49 120 240 215 50 120 240 215 50 121 241 216 51 121 241 216 51 122 242 217 52 122 242 217 52 28 93 47 4 73 21 22 68 243 183 188 218 243 183 188 218 244 184 189 219 244 184 189 219 245 185 190 220 245 185 190 220 246 186 191 221 246 186 191 221 247 187 192 222 247 187 192 222 102 41 42 97 74 73 68 69 248 243 218 223 248 243 218 223 249 244 219 224 249 244 219 224 250 245 220 225 250 245 220 225 251 246 221 226 251 246 221 226 252 247 222 227 252 247 222 227 101 102 97 96 75 74 69 70 253 248 223 228 253 248 223 228 254 249 224 229 254 249 224 229 255 250 225 230 255 250 225 230 256 251 226 231 256 251 226 231 257 252 227 232 257 252 227 232 100 101 96 95 76 75 70 71 258 253 228 233 258 253 228 233 259 254 229 234 259 254 229 234 260 255 230 235 260 255 230 235 261 256 231 236 261 256 231 236 262 257 232 237 262 257 232 237 99 100 95 94 77 76 71 72 263 258 233 238 263 258 233 238 264 259 234 239 264 259 234 239 265 260 235 240 265 260 235 240 266 261 236 241 266 261 236 241 267 262 237 242 267 262 237 242 98 99 94 93 9 77 72 8 123 263 238 118 123 263 238 118 124 264 239 119 124 264 239 119 125 265 240 120 125 265 240 120 126 266 241 121 126 266 241 121 127 267 242 122 127 267 242 122 29 98 93 28 78 20 21 73 268 178 183 243 268 178 183 243 269 179 184 244 269 179 184 244 270 180 185 245 270 180 185 245 271 181 186 246 271 181 186 246 272 182 187 247 272 182 187 247 107 40 41 102 79 78 73 74 273 268 243 248 273 268 243 248 274 269 244 249 274 269 244 249 275 270 245 250 275 270 245 250 276 271 246 251 276 271 246 251 277 272 247 252 277 272 247 252 106 107 102 101 80 79 74 75 278 273 248 253 278 273 248 253 279 274 249 254 279 274 249 254 280 275 250 255 280 275 250 255 281 276 251 256 281 276 251 256 282 277 252 257 282 277 252 257 105 106 101 100 81 80 75 76 283 278 253 258 283 278 253 258 284 279 254 259 284 279 254 259 285 280 255 260 285 280 255 260 286 281 256 261 286 281 256 261 287 282 257 262 287 282 257 262 104 105 100 99 82 81 76 77 288 283 258 263 288 283 258 263 289 284 259 264 289 284 259 264 290 285 260 265 290 285 260 265 291 286 261 266 291 286 261 266 292 287 262 267 292 287 262 267 103 104 99 98 10 82 77 9 128 288 263 123 128 288 263 123 129 289 264 124 129 289 264 124 130 290 265 125 130 290 265 125 131 291 266 126 131 291 266 126 132 292 267 127 132 292 267 127 30 103 98 29 83 19 20 78 293 173 178 268 293 173 178 268 294 174 179 269 294 174 179 269 295 175 180 270 295 175 180 270 296 176 181 271 296 176 181 271 297 177 182 272 297 177 182 272 112 39 40 107 84 83 78 79 298 293 268 273 298 293 268 273 299 294 269 274 299 294 269 274 300 295 270 275 300 295 270 275 301 296 271 276 301 296 271 276 302 297 272 277 302 297 272 277 111 112 107 106 85 84 79 80 303 298 273 278 303 298 273 278 304 299 274 279 304 299 274 279 305 300 275 280 305 300 275 280 306 301 276 281 306 301 276 281 307 302 277 282 307 302 277 282 110 111 106 105 86 85 80 81 308 303 278 283 308 303 278 283 309 304 279 284 309 304 279 284 310 305 280 285 310 305 280 285 311 306 281 286 311 306 281 286 312 307 282 287 312 307 282 287 109 110 105 104 87 86 81 82 313 308 283 288 313 308 283 288 314 309 284 289 314 309 284 289 315 310 285 290 315 310 285 290 316 311 286 291 316 311 286 291 317 312 287 292 317 312 287 292 108 109 104 103 11 87 82 10 133 313 288 128 133 313 288 128 134 314 289 129 134 314 289 129 135 315 290 130 135 315 290 130 136 316 291 131 136 316 291 131 137 317 292 132 137 317 292 132 31 108 103 30 88 18 19 83 318 168 173 293 318 168 173 293 319 169 174 294 319 169 174 294 320 170 175 295 320 170 175 295 321 171 176 296 321 171 176 296 322 172 177 297 322 172 177 297 117 38 39 112 89 88 83 84 323 318 293 298 323 318 293 298 324 319 294 299 324 319 294 299 325 320 295 300 325 320 295 300 326 321 296 301 326 321 296 301 327 322 297 302 327 322 297 302 116 117 112 111 90 89 84 85 328 323 298 303 328 323 298 303 329 324 299 304 329 324 299 304 330 325 300 305 330 325 300 305 331 326 301 306 331 326 301 306 332 327 302 307 332 327 302 307 115 116 111 110 91 90 85 86 333 328 303 308 333 328 303 308 334 329 304 309 334 329 304 309 335 330 305 310 335 330 305 310 336 331 306 311 336 331 306 311 337 332 307 312 337 332 307 312 114 115 110 109 92 91 86 87 338 333 308 313 338 333 308 313 339 334 309 314 339 334 309 314 340 335 310 315 340 335 310 315 341 336 311 316 341 336 311 316 342 337 312 317 342 337 312 317 113 114 109 108 12 92 87 11 138 338 313 133 138 338 313 133 139 339 314 134 139 339 314 134 140 340 315 135 140 340 315 135 141 341 316 136 141 341 316 136 142 342 317 137 142 342 317 137 32 113 108 31 17 2 18 88 163 58 168 318 163 58 168 318 164 59 169 319 164 59 169 319 165 60 170 320 165 60 170 320 166 61 171 321 166 61 171 321 167 62 172 322 167 62 172 322 37 6 38 117 16 17 88 89 158 163 318 323 158 163 318 323 159 164 319 324 159 164 319 324 160 165 320 325 160 165 320 325 161 166 321 326 161 166 321 326 162 167 322 327 162 167 322 327 36 37 117 116 15 16 89 90 153 158 323 328 153 158 323 328 154 159 324 329 154 159 324 329 155 160 325 330 155 160 325 330 156 161 326 331 156 161 326 331 157 162 327 332 157 162 327 332 35 36 116 115 14 15 90 91 148 153 328 333 148 153 328 333 149 154 329 334 149 154 329 334 150 155 330 335 150 155 330 335 151 156 331 336 151 156 331 336 152 157 332 337 152 157 332 337 34 35 115 114 13 14 91 92 143 148 333 338 143 148 333 338 144 149 334 339 144 149 334 339 145 150 335 340 145 150 335 340 146 151 336 341 146 151 336 341 147 152 337 342 147 152 337 342 33 34 114 113 1 13 92 12 53 143 338 138 53 143 338 138 54 144 339 139 54 144 339 139 55 145 340 140 55 145 340 140 56 146 341 141 56 146 341 141 57 147 342 142 57 147 342 142 5 33 113 32 </DataArray>
<DataArray type="Int32" Name="offsets" format="ascii">
8 16 24 32 40 48 56 64 72 80 88 96 104 112 120 128 136 144 152 160 168 176 184 192 200 208 216 224 232 240 248 256 264 272 280 288 296 304 312 320 328 336 344 352 360 368 376 384 392 400 408 416 424 432 440 448 456 464 472 480 488 496 504 512 520 528 536 544 552 560 568 576 584 592 600 608 616 624 632 640 648 656 664 672 680 688 696 704 712 720 728 736 744 752 760 768 776 784 792 800 808 816 824 832 840 848 856 864 872 880 888 896 904 912 920 928 936 944 952 960 968 976 984 992 1000 1008 1016 1024 1032 1040 1048 1056 1064 1072 1080 1088 1096 1104 1112 1120 1128 1136 1144 1152 1160 1168 1176 1184 1192 1200 1208 1216 1224 1232 1240 1248 1256 1264 1272 1280 1288 1296 1304 1312 1320 1328 1336 1344 1352 1360 1368 1376 1384 1392 1400 1408 1416 1424 1432 1440 1448 1456 1464 1472 1480 1488 1496 1504 1512 1520 1528 1536 1544 1552 1560 1568 1576 1584 1592 1600 1608 1616 1624 1632 1640 1648 1656 1664 1672 1680 1688 1696 1704 1712 1720 1728 </DataArray>
<DataArray type="UInt8" Name="types" format="ascii">
12 12 12 12 12 12 12 12 12 12 12 12 12 12 12 12 12 12 12 12 12 12 12 12 12 12 12 12 12 12 12 12 12 12 12 12 12 12 12 12 12 12 12 12 12 12 12 12 12 12 12 12 12 12 12 12 12 12 12 12 12 12 12 12 12 12 12 12 12 12 12 12 12 12 12 12 12 12 12 12 12 12 12 12 12 12 12 12 12 12 12 12 12 12 12 12 12 12 12 12 12 12 12 12 12 12 12 12 12 12 12 12 12 12 12 12 12 12 12 12 12 12 12 12 12 12 12 12 12 12 12 12 12 12 12 12 12 12 12 12 12 12 12 12 12 12 12 12 12 12 12 12 12 12 12 12 12 12 12 12 12 12 12 12 12 12 12 12 12 12 12 12 12 12 12 12 12 12 12 12 12 12 12 12 12 12 12 12 12 12 12 12 12 12 12 12 12 12 12 12 12 12 12 12 12 12 12 12 12 12 12 12 12 12 12 12 </DataArray>
</Cells>
<CellData Scalars="scalars">
<DataArray type="Float32" Name="number_density" format="ascii">
6.48e+15 2.16e+15 2.16e+15 6.48e+15 8.64e+15 4.32e+15 0 2.16e+15 0 0 2.16e+15 6.48e+15 0 4.32e+15 0 0 0 2.16e+15 4.32e+15 0 0 2.16e+15 2.16e+15 2.16e+15 6.48e+15 0 0 2.16e+15 4.32e+15 8.64e+15 1.08e+16 2.16e+15 0 0 4.32e+15 8.64e+15 1.728e+16 1.296e+16 8.64e+15 8.64e+15 6.48e+15 6.48e+15 6.48e+15 8.64e+15 6.48e+15 2.16e+15 2.16e+15 8.64e+15 2.16e+15 4.32e+15 6.48e+15 4.32e+15 6.48e+15 4.32e+15 4.32e+15 4.32e+15 0 0 1.08e+16 1.08e+16 2.16e+15 0 2.16e+15 6.48e+15 2.16e+15 1.08e+16 2.16e+15 2.16e+15 0 2.16e+15 6.48e+15 6.48e+15 8.64e+15 1.08e+16 1.296e+16 2.16e+16 1.728e+16 1.08e+16 6.48e+15 6.48e+15 1.512e+16 2.592e+16 1.512e+16 1.08e+16 2.16e+15 6.48e+15 6.48e+15 6.48e+15 1.08e+16 4.32e+15 6.48e+15 2.16e+15 0 1.728e+16 4.32e+15 0 2.16e+15 2.16e+15 2.16e+15 4.32e+15 6.48e+15 6.48e+15 6.48e+15 0 0 0 0 2.16e+15 6.48e+15 1.08e+16 1.512e+16 3.672e+16 3.24e+16 1.296e+16 0 8.64e+15 1.944e+16 2.376e+16 2.592e+16 2.376e+16 2.16e+15 4.32e+15 8.64e+15 1.08e+16 2.376e+16 1.512e+16 6.48e+15 0 1.296e+16 1.512e+16 1.512e+16 1.08e+16 0 8.64e+15 2.16e+15 6.48e+15 2.16e+15 2.16e+16 2.16e+15 4.32e+15 0 0 4.32e+15 4.32e+15 8.64e+15 1.728e+16 1.512e+16 5.4e+16 7.56e+16 2.376e+16 8.64e+15 8.64e+15 1.944e+16 4.752e+16 9.936e+16 2.808e+16 0 1.08e+16 1.944e+16 2.592e+16 4.104e+16 1.08e+16 2.16e+15 1.08e+16 1.728e+16 1.944e+16 6.48e+15 1.08e+16 6.48e+15 1.728e+16 6.48e+15 8.64e+15 2.16e+15 8.64e+15 2.16e+15 6.48e+15 2.16e+15 0 0 2.16e+15 8.64e+15 1.296e+16 1.728e+16 5.4e+16 8.208e+16 2.592e+16 6.48e+15 1.728e+16 2.376e+16 3.456e+16 4.968e+16 3.672e+16 8.64e+15 1.296e+16 1.296e+16 1.08e+16 2.808e+16 8.64e+15 1.08e+16 8.64e+15 2.16e+15 8.64e+15 6.48e+15 8.64e+15 2.16e+15 6.48e+15 4.32e+15 1.08e+16 4.32e+15 4.32e+15 4.32e+15 6.48e+15 2.16e+15 2.16e+15 2.16e+15 8.64e+15 </DataArray>
<DataArray type="Float32" Name="potential" format="ascii">
0 0 0 0 0 0 0 0 0 0 0 0 0 0 0 0 0 0 0 0 0 0 0 0 0 0 0 0 0 0 0 0 0 0 0 0 0 0 0 0 0 0 0 0 0 0 0 0 0 0 0 0 0 0 0 0 0 0 0 0 0 0 0 0 0 0 0 0 0 0 0 0 0 0 0 0 0 0 0 0 0 0 0 0 0 0 0 0 0 0 0 0 0 0 0 0 0 0 0 0 0 0 0 0 0 0 0 0 0 0 0 0 0 0 0 0 0 0 0 0 0 0 0 0 0 0 0 0 0 0 0 0 0 0 0 0 0 0 0 0 0 0 0 0 0 0 0 0 0 0 0 0 0 0 0 0 0 0 0 0 0 0 0 0 0 0 0 0 0 0 0 0 0 0 0 0 0 0 0 0 0 0 0 0 0 0 0 0 0 0 0 0 0 0 0 0 0 0 0 0 0 0 0 0 0 0 0 0 0 0 0 0 0 0 0 0 </DataArray>
<DataArray type="Float32" Name="temperature" format="ascii">
276.668 1e-15 1e-15 104.019 555.887 120.941 0 2.12249e-15 0 0 9.38395e-14 205.585 0 201.31 0 0 0 1e-15 100.321 0 0 3.73358e-13 1e-15 9.38395e-14 126.025 0 0 1e-15 38.4722 106.568 123.715 1e-15 0 0 72.1779 214.4 187.193 187.9 357.327 301.134 443.914 300.202 179.309 324.929 57.6965 1e-15 1e-15 269.921 9.93295e-14 422.352 271.783 331.995 246.135 497.106 31.8995 143.623 0 0 220.083 101.62 1e-15 0 3.73358e-13 351.573 1e-15 233.637 1e-15 1e-15 0 1e-15 191.733 223.657 193.518 889.942 1049.23 1085.37 1272.14 241.276 154.623 85.3868 427.954 872.041 784.876 478.413 1e-15 255.725 844.383 1308.33 541.564 456.69 229.641 1e-15 0 524.387 543.166 0 2.79852e-13 1e-15 7.46049e-13 308.341 524.697 74.7977 106.06 0 0 0 0 1e-15 625.891 540.643 822.293 1783.3 1271.28 517.514 0 1394.1 522.417 3290.55 1475.42 1435.66 1e-15 63.1789 476.6 720.74 1454.73 642.951 248.946 0 1077.17 1099.15 1297.33 789.728 0 207.537 1e-15 299.103 1e-15 398.016 1e-15 118.025 0 0 676.494 73.169 237.253 1068.48 1517.26 2473.56 3148.45 1191.5 272.392 542.546 1971.72 3719 2815.66 910.579 0 673.204 1629.46 1942.46 2076.38 338.418 9.38395e-14 286.71 916.929 1623.51 1332.07 299.054 443.464 344.759 337.825 436.877 2.12249e-15 245.32 1e-15 182.763 1e-15 0 0 6.48997e-15 237.279 544.834 1328.37 3737.62 5643.35 3016.18 349.245 1008.68 1479.27 1147.02 2578.01 976.76 218.537 480.717 583.226 741.367 732.738 80.1795 210.848 361.164 1e-15 235.689 849.611 77.7289 9.38395e-14 319.805 315.662 355.258 61.6696 385.537 32.3847 319.767 1.23133e-14 1e-15 1e-15 214.979 </DataArray>
<DataArray type="Float32" Name="velocity" format="ascii">
355 751.255 798.522 546.182 403.026 186.733 0 705.997 0 0 932.545 457.706 0 1159.03 0 0 0 808.132 833.431 0 0 1885.53 1395.3 1105.27 701.226 0 0 1191.74 852.265 594.989 241.751 859.245 0 0 510.334 421.559 639.885 691.977 916.458 922.484 1079.37 631.919 967.905 1234.5 1551.1 1859.65 1194.15 1090.55 999.257 1911.25 2356.33 2514.11 1413.81 998.429 1204.39 1707.99 0 0 1530.04 1076.41 1109.31 0 1479.29 1530.09 901.09 908.468 604.594 985.994 0 1307.79 1052.47 611.364 715.316 1111.12 1603.27 1428.06 870.808 369.787 1327.69 2436.6 2285.46 2273.31 1595.86 1338.72 1581.37 2753.44 3044.03 2809.31 1960.06 1654.03 1846.61 2908.18 0 2770.22 2027.22 0 1130.72 1484.13 2247.24 2177.54 1746.95 803.216 911.125 0 0 0 0 788.38 822.703 1269.33 2037.45 1568.64 1137.03 380.615 0 2329.46 3075.26 2331.24 2082.01 1115.19 2081.5 3049.06 3547.78 3545.74 2644.73 1364.18 1439.06 0 2523.5 2587.84 1945.3 1139.06 0 1854.68 2775.49 1657.71 1594.59 825.563 770.856 1315.51 0 0 935.576 531.596 387.316 1011.57 1520.66 1332.31 1555.72 870.905 838.056 1564.59 2472.52 2574.17 1951.11 870.551 0 1891.38 2300.04 2203.73 1676.49 1419.32 848.139 1616.81 1854.27 1883.61 1466.96 1122.34 1077.58 1091.35 1350.3 1296.92 1313.24 693.019 473.304 693.137 1124.66 0 0 222.808 228.476 683.109 482.477 1217.9 2121.27 743.539 505.086 659.026 1432.75 1218.56 1750.75 676.329 717.908 783.255 1119.67 1583 767.112 416.026 465.903 1354.85 1150.9 1158.47 727.464 756.065 662.249 750.271 908.452 1031.96 779.596 383.523 204.833 204.883 617.357 652.028 807.584 336.106 </DataArray>
<DataArray type="Float32" Name="E_field" format="ascii">
0 0 0 0 0 0 0 0 0 0 0 0 0 0 0 0 0 0 0 0 0 0 0 0 0 0 0 0 0 0 0 0 0 0 0 0 0 0 0 0 0 0 0 0 0 0 0 0 0 0 0 0 0 0 0 0 0 0 0 0 0 0 0 0 0 0 0 0 0 0 0 0 0 0 0 0 0 0 0 0 0 0 0 0 0 0 0 0 0 0 0 0 0 0 0 0 0 0 0 0 0 0 0 0 0 0 0 0 0 0 0 0 0 0 0 0 0 0 0 0 0 0 0 0 0 0 0 0 0 0 0 0 0 0 0 0 0 0 0 0 0 0 0 0 0 0 0 0 0 0 0 0 0 0 0 0 0 0 0 0 0 0 0 0 0 0 0 0 0 0 0 0 0 0 0 0 0 0 0 0 0 0 0 0 0 0 0 0 0 0 0 0 0 0 0 0 0 0 0 0 0 0 0 0 0 0 0 0 0 0 0 0 0 0 0 0 </DataArray>
</CellData>
<PointData Scalars="number_density">
<DataArray type="Float32" Name="number_density" format="ascii">
1.08e+16 4.32e+15 8.64e+15 6.48e+15 8.64e+15 8.64e+15 2.592e+16 4.32e+15 6.48e+15 4.32e+15 4.32e+15 2.16e+15 3.24e+15 3.24e+15 6.48e+15 9.72e+15 7.56e+15 7.56e+15 8.64e+15 7.56e+15 7.56e+15 1.296e+16 1.188e+16 3.24e+15 0 2.16e+15 5.4e+15 8.64e+15 7.56e+15 4.32e+15 3.24e+15 3.24e+15 5.4e+15 6.48e+15 6.48e+15 8.64e+15 2.268e+16 3.132e+16 2.484e+16 1.836e+16 1.188e+16 8.64e+15 5.4e+15 5.4e+15 4.32e+15 2.16e+15 5.4e+15 8.64e+15 6.48e+15 1.08e+15 0 2.16e+15 6.48e+15 5.4e+15 4.32e+15 2.16e+15 2.16e+15 5.4e+15 1.08e+16 1.512e+16 3.564e+16 6.804e+16 5.4e+16 4.32e+15 2.16e+15 4.32e+15 7.56e+15 6.48e+15 7.56e+15 2.16e+15 2.7e+15 4.32e+15 5.4e+15 9.72e+15 4.32e+15 3.78e+15 3.78e+15 3.24e+15 5.4e+15 2.7e+15 4.32e+15 3.78e+15 2.7e+15 5.94e+15 2.7e+15 2.7e+15 3.78e+15 2.7e+15 8.1e+15 5.94e+15 5.4e+15 5.4e+15 3.78e+15 8.64e+15 8.1e+15 4.86e+15 5.4e+15 6.48e+15 6.48e+15 7.02e+15 4.86e+15 7.02e+15 9.18e+15 8.64e+15 9.72e+15 7.56e+15 1.35e+16 1.458e+16 9.18e+15 1.296e+16 1.188e+16 1.944e+16 2.214e+16 5.94e+15 8.1e+15 9.72e+15 2.106e+16 2.862e+16 4.32e+15 1.08e+15 5.4e+14 3.24e+15 6.48e+15 2.7e+15 5.4e+14 5.4e+14 2.16e+15 3.78e+15 3.24e+15 1.08e+15 0 1.08e+15 2.7e+15 3.78e+15 3.24e+15 5.4e+14 1.08e+15 2.7e+15 4.86e+15 4.32e+15 1.62e+15 1.08e+15 3.24e+15 4.86e+15 4.86e+15 4.86e+15 4.86e+15 4.86e+15 7.02e+15 5.4e+15 6.48e+15 7.56e+15 5.94e+15 1.026e+16 9.18e+15 8.64e+15 1.35e+16 1.296e+16 1.134e+16 1.674e+16 2.052e+16 3.078e+16 3.078e+16 1.134e+16 1.782e+16 3.24e+16 5.508e+16 4.86e+16 1.188e+16 1.566e+16 3.51e+16 6.642e+16 5.184e+16 1.08e+16 1.458e+16 3.024e+16 4.968e+16 3.618e+16 9.18e+15 1.242e+16 2.16e+16 2.7e+16 1.836e+16 1.242e+16 1.134e+16 1.296e+16 1.35e+16 1.026e+16 9.72e+15 6.48e+15 6.48e+15 7.56e+15 6.48e+15 2.7e+15 1.62e+15 2.16e+15 4.32e+15 5.4e+15 1.62e+15 1.62e+15 0 5.4e+14 2.7e+15 2.16e+15 1.08e+15 5.4e+14 1.08e+15 1.62e+15 2.7e+15 0 1.08e+15 2.7e+15 4.32e+15 4.86e+15 5.4e+14 5.4e+14 2.7e+15 6.48e+15 7.02e+15 5.4e+15 4.32e+15 4.59e+15 5.67e+15 3.51e+15 4.05e+15 2.43e+15 2.16e+15 4.05e+15 2.97e+15 2.43e+15 1.62e+15 3.24e+15 4.86e+15 2.7e+15 8.1e+14 1.62e+15 3.78e+15 6.48e+15 3.24e+15 8.1e+14 1.62e+15 3.51e+15 6.48e+15 9.72e+15 1.026e+16 1.269e+16 1.242e+16 9.72e+15 5.4e+15 7.56e+15 9.18e+15 9.18e+15 7.83e+15 4.05e+15 3.78e+15 5.13e+15 7.56e+15 6.48e+15 2.97e+15 1.62e+15 4.05e+15 6.48e+15 6.48e+15 2.16e+15 1.08e+15 2.16e+15 3.51e+15 5.13e+15 7.29e+15 1.242e+16 2.133e+16 2.484e+16 1.863e+16 4.59e+15 9.45e+15 1.458e+16 1.782e+16 1.62e+16 3.78e+15 5.13e+15 9.72e+15 1.296e+16 1.053e+16 3.51e+15 3.78e+15 7.56e+15 8.91e+15 8.37e+15 3.24e+15 2.43e+15 1.89e+15 2.97e+15 5.94e+15 8.64e+15 1.431e+16 2.889e+16 4.941e+16 4.023e+16 5.4e+15 1.242e+16 2.187e+16 3.726e+16 3.348e+16 4.59e+15 1.053e+16 1.62e+16 1.971e+16 1.674e+16 6.48e+15 9.45e+15 1.107e+16 9.45e+15 9.72e+15 5.94e+15 5.94e+15 3.24e+15 2.97e+15 5.67e+15 1.107e+16 1.647e+16 3.321e+16 6.21e+16 5.265e+16 9.18e+15 1.566e+16 2.43e+16 4.212e+16 3.78e+16 8.1e+15 1.188e+16 1.458e+16 1.836e+16 1.512e+16 8.1e+15 9.18e+15 9.72e+15 8.37e+15 6.48e+15 6.48e+15 6.48e+15 4.59e+15 3.78e+15 4.05e+15 </DataArray>
<DataArray type="Float32" Name="potential" format="ascii">
0 0 0 0 0 0 0 0 0 0 0 0 0 0 0 0 0 0 0 0 0 0 0 0 0 0 0 0 0 0 0 0 0 0 0 0 0 0 0 0 0 0 0 0 0 0 0 0 0 0 0 0 0 0 0 0 0 0 0 0 0 0 0 0 0 0 0 0 0 0 0 0 0 0 0 0 0 0 0 0 0 0 0 0 0 0 0 0 0 0 0 0 0 0 0 0 0 0 0 0 0 0 0 0 0 0 0 0 0 0 0 0 0 0 0 0 0 0 0 0 0 0 0 0 0 0 0 0 0 0 0 0 0 0 0 0 0 0 0 0 0 0 0 0 0 0 0 0 0 0 0 0 0 0 0 0 0 0 0 0 0 0 0 0 0 0 0 0 0 0 0 0 0 0 0 0 0 0 0 0 0 0 0 0 0 0 0 0 0 0 0 0 0 0 0 0 0 0 0 0 0 0 0 0 0 0 0 0 0 0 0 0 0 0 0 0 0 0 0 0 0 0 0 0 0 0 0 0 0 0 0 0 0 0 0 0 0 0 0 0 0 0 0 0 0 0 0 0 0 0 0 0 0 0 0 0 0 0 0 0 0 0 0 0 0 0 0 0 0 0 0 0 0 0 0 0 0 0 0 0 0 0 0 0 0 0 0 0 0 0 0 0 0 0 0 0 0 0 0 0 0 0 0 0 0 0 0 0 0 0 0 0 0 0 0 0 0 0 0 0 0 0 0 0 0 0 0 0 0 0 0 0 0 0 0 0 0 0 0 0 0 0 0 </DataArray>
<DataArray type="Float32" Name="temperature" format="ascii">