<VTKFile type="UnstructuredGrid" version="0.1" byte_order="LittleEndian">
<UnstructuredGrid>
<Piece NumberOfPoints="343" NumberOfCells="216">
<Points>
<DataArray type="Float32" NumberOfComponents="3" format="ascii">
-0.05 -0.05 -0.05 0.05 -0.05 -0.05 0.05 0.05 -0.05 -0.05 0.05 -0.05 -0.05 -0.05 0.05 0.05 -0.05 0.05 0.05 0.05 0.05 -0.05 0.05 0.05 -0.0333333 -0.05 -0.05 -0.0166667 -0.05 -0.05 0 -0.05 -0.05 0.0166667 -0.05 -0.05 0.0333333 -0.05 -0.05 0.05 -0.0333333 -0.05 0.05 -0.0166667 -0.05 0.05 0 -0.05 0.05 0.0166667 -0.05 0.05 0.0333333 -0.05 0.0333333 0.05 -0.05 0.0166667 0.05 -0.05 0 0.05 -0.05 -0.0166667 0.05 -0.05 -0.0333333 0.05 -0.05 -0.05 0.0333333 -0.05 -0.05 0.0166667 -0.05 -0.05 0 -0.05 -0.05 -0.0166667 -0.05 -0.05 -0.0333333 -0.05 -0.0333333 -0.05 0.05 -0.0166667 -0.05 0.05 0 -0.05 0.05 0.0166667 -0.05 0.05 0.0333333 -0.05 0.05 0.05 -0.0333333 0.05 0.05 -0.0166667 0.05 0.05 0 0.05 0.05 0.0166667 0.05 0.05 0.0333333 0.05 0.0333333 0.05 0.05 0.0166667 0.05 0.05 0 0.05 0.05 -0.0166667 0.05 0.05 -0.0333333 0.05 0.05 -0.05 0.0333333 0.05 -0.05 0.0166667 0.05 -0.05 0 0.05 -0.05 -0.0166667 0.05 -0.05 -0.0333333 0.05 -0.05 -0.05 -0.0333333 -0.05 -0.05 -0.0166667 -0.05 -0.05 0 -0.05 -0.05 0.0166667 -0.05 -0.05 0.0333333 0.05 -0.05 -0.0333333 0.05 -0.05 -0.0166667 0.05 -0.05 0 0.05 -0.05 0.0166667 0.05 -0.05 0.0333333 0.05 0.05 -0.0333333 0.05 0.05 -0.0166667 0.05 0.05 0 0.05 0.05 0.0166667 0.05 0.05 0.0333333 -0.05 0.05 -0.0333333 -0.05 0.05 -0.0166667 -0.05 0.05 0 -0.05 0.05 0.0166667 -0.05 0.05 0.0333333 -0.0333333 0.0333333 -0.05 -0.0333333 0.0166667 -0.05 -0.0333333 -3.55271e-18 -0.05 -0.0333333 -0.0166667 -0.05 -0.0333333 -0.0333333 -0.05 -0.0166667 0.0333333 -0.05 -0.0166667 0.0166667 -0.05 -0.0166667 -7.10543e-18 -0.05 -0.0166667 -0.0166667 -0.05 -0.0166667 -0.0333333 -0.05 1.77636e-18 0.0333333 -0.05 5.32907e-18 0.0166667 -0.05 3.55271e-18 -1.77636e-18 -0.05 7.10543e-18 -0.0166667 -0.05 3.55271e-18 -0.0333333 -0.05 0.0166667 0.0333333 -0.05 0.0166667 0.0166667 -0.05 0.0166667 -7.10543e-18 -0.05 0.0166667 -0.0166667 -0.05 0.0166667 -0.0333333 -0.05 0.0333333 0.0333333 -0.05 0.0333333 0.0166667 -0.05 0.0333333 -1.77636e-18 -0.05 0.0333333 -0.0166667 -0.05 0.0333333 -0.0333333 -0.05 -0.0333333 -0.0333333 0.05 -0.0333333 -0.0166667 0.05 -0.0333333 0 0.05 -0.0333333 0.0166667 0.05 -0.0333333 0.0333333 0.05 -0.0166667 -0.0333333 0.05 -0.0166667 -0.0166667 0.05 -0.0166667 0 0.05 -0.0166667 0.0166667 0.05 -0.0166667 0.0333333 0.05 0 -0.0333333 0.05 0 -0.0166667 0.05 0 0 0.05 0 0.0166667 0.05 0 0.0333333 0.05 0.0166667 -0.0333333 0.05 0.0166667 -0.0166667 0.05 0.0166667 0 0.05 0.0166667 0.0166667 0.05 0.0166667 0.0333333 0.05 0.0333333 -0.0333333 0.05 0.0333333 -0.0166667 0.05 0.0333333 1.77636e-18 0.05 0.0333333 0.0166667 0.05 0.0333333 0.0333333 0.05 -0.0333333 -0.05 -0.0333333 -0.0333333 -0.05 -0.0166667 -0.0333333 -0.05 0 -0.0333333 -0.05 0.0166667 -0.0333333 -0.05 0.0333333 -0.0166667 -0.05 -0.0333333 -0.0166667 -0.05 -0.0166667 -0.0166667 -0.05 0 -0.0166667 -0.05 0.0166667 -0.0166667 -0.05 0.0333333 0 -0.05 -0.0333333 0 -0.05 -0.0166667 0 -0.05 0 0 -0.05 0.0166667 0 -0.05 0.0333333 0.0166667 -0.05 -0.0333333 0.0166667 -0.05 -0.0166667 0.0166667 -0.05 0 0.0166667 -0.05 0.0166667 0.0166667 -0.05 0.0333333 0.0333333 -0.05 -0.0333333 0.0333333 -0.05 -0.0166667 0.0333333 -0.05 1.77636e-18 0.0333333 -0.05 0.0166667 0.0333333 -0.05 0.0333333 0.05 -0.0333333 -0.0333333 0.05 -0.0333333 -0.0166667 0.05 -0.0333333 0 0.05 -0.0333333 0.0166667 0.05 -0.0333333 0.0333333 0.05 -0.0166667 -0.0333333 0.05 -0.0166667 -0.0166667 0.05 -0.0166667 0 0.05 -0.0166667 0.0166667 0.05 -0.0166667 0.0333333 0.05 0 -0.0333333 0.05 0 -0.0166667 0.05 0 0 0.05 0 0.0166667 0.05 0 0.0333333 0.05 0.0166667 -0.0333333 0.05 0.0166667 -0.0166667 0.05 0.0166667 0 0.05 0.0166667 0.0166667 0.05 0.0166667 0.0333333 0.05 0.0333333 -0.0333333 0.05 0.0333333 -0.0166667 0.05 0.0333333 1.77636e-18 0.05 0.0333333 0.0166667 0.05 0.0333333 0.0333333 0.0333333 0.05 -0.0333333 0.0333333 0.05 -0.0166667 0.0333333 0.05 0 0.0333333 0.05 0.0166667 0.0333333 0.05 0.0333333 0.0166667 0.05 -0.0333333 0.0166667 0.05 -0.0166667 0.0166667 0.05 0 0.0166667 0.05 0.0166667 0.0166667 0.05 0.0333333 0 0.05 -0.0333333 0 0.05 -0.0166667 0 0.05 0 0 0.05 0.0166667 0 0.05 0.0333333 -0.0166667 0.05 -0.0333333 -0.0166667 0.05 -0.0166667 -0.0166667 0.05 0 -0.0166667 0.05 0.0166667 -0.0166667 0.05 0.0333333 -0.0333333 0.05 -0.0333333 -0.0333333 0.05 -0.0166667 -0.0333333 0.05 1.77636e-18 -0.0333333 0.05 0.0166667 -0.0333333 0.05 0.0333333 -0.05 0.0333333 -0.0333333 -0.05 0.0333333 -0.0166667 -0.05 0.0333333 0 -0.05 0.0333333 0.0166667 -0.05 0.0333333 0.0333333 -0.05 0.0166667 -0.0333333 -0.05 0.0166667 -0.0166667 -0.05 0.0166667 0 -0.05 0.0166667 0.0166667 -0.05 0.0166667 0.0333333 -0.05 0 -0.0333333 -0.05 0 -0.0166667 -0.05 0 0 -0.05 0 0.0166667 -0.05 0 0.0333333 -0.05 -0.0166667 -0.0333333 -0.05 -0.0166667 -0.0166667 -0.05 -0.0166667 0 -0.05 -0.0166667 0.0166667 -0.05 -0.0166667 0.0333333 -0.05 -0.0333333 -0.0333333 -0.05 -0.0333333 -0.0166667 -0.05 -0.0333333 1.77636e-18 -0.05 -0.0333333 0.0166667 -0.05 -0.0333333 0.0333333 -0.0333333 0.0333333 -0.0333333 -0.0333333 0.0333333 -0.0166667 -0.0333333 0.0333333 4.44089e-19 -0.0333333 0.0333333 0.0166667 -0.0333333 0.0333333 0.0333333 -0.0333333 0.0166667 -0.0333333 -0.0333333 0.0166667 -0.0166667 -0.0333333 0.0166667 -4.44089e-18 -0.0333333 0.0166667 0.0166667 -0.0333333 0.0166667 0.0333333 -0.0333333 -6.66134e-18 -0.0333333 -0.0333333 -9.76996e-18 -0.0166667 -0.0333333 -1.77636e-18 -1.77636e-18 -0.0333333 -1.77636e-18 0.0166667 -0.0333333 3.55271e-18 0.0333333 -0.0333333 -0.0166667 -0.0333333 -0.0333333 -0.0166667 -0.0166667 -0.0333333 -0.0166667 1.77636e-18 -0.0333333 -0.0166667 0.0166667 -0.0333333 -0.0166667 0.0333333 -0.0333333 -0.0333333 -0.0333333 -0.0333333 -0.0333333 -0.0166667 -0.0333333 -0.0333333 0 -0.0333333 -0.0333333 0.0166667 -0.0333333 -0.0333333 0.0333333 -0.0166667 0.0333333 -0.0333333 -0.0166667 0.0333333 -0.0166667 -0.0166667 0.0333333 2.66454e-18 -0.0166667 0.0333333 0.0166667 -0.0166667 0.0333333 0.0333333 -0.0166667 0.0166667 -0.0333333 -0.0166667 0.0166667 -0.0166667 -0.0166667 0.0166667 -1.77636e-18 -0.0166667 0.0166667 0.0166667 -0.0166667 0.0166667 0.0333333 -0.0166667 -1.06581e-17 -0.0333333 -0.0166667 -1.15463e-17 -0.0166667 -0.0166667 -3.55271e-18 0 -0.0166667 -8.88178e-18 0.0166667 -0.0166667 -1.77636e-18 0.0333333 -0.0166667 -0.0166667 -0.0333333 -0.0166667 -0.0166667 -0.0166667 -0.0166667 -0.0166667 3.55271e-18 -0.0166667 -0.0166667 0.0166667 -0.0166667 -0.0166667 0.0333333 -0.0166667 -0.0333333 -0.0333333 -0.0166667 -0.0333333 -0.0166667 -0.0166667 -0.0333333 0 -0.0166667 -0.0333333 0.0166667 -0.0166667 -0.0333333 0.0333333 3.44169e-18 0.0333333 -0.0333333 1.02141e-17 0.0333333 -0.0166667 2.66454e-18 0.0333333 -8.88178e-19 6.21725e-18 0.0333333 0.0166667 1.33227e-18 0.0333333 0.0333333 7.99361e-18 0.0166667 -0.0333333 8.43769e-18 0.0166667 -0.0166667 8.88178e-19 0.0166667 8.88178e-19 7.99361e-18 0.0166667 0.0166667 3.55271e-18 0.0166667 0.0333333 3.55271e-18 -1.77636e-18 -0.0333333 9.76996e-18 -9.76996e-18 -0.0166667 0 -8.88178e-19 -8.88178e-19 8.88178e-18 -8.88178e-18 0.0166667 1.77636e-18 -1.77636e-18 0.0333333 1.02141e-17 -0.0166667 -0.0333333 1.24345e-17 -0.0166667 -0.0166667 3.55271e-18 -0.0166667 -1.77636e-18 8.88178e-18 -0.0166667 0.0166667 3.55271e-18 -0.0166667 0.0333333 5.77316e-18 -0.0333333 -0.0333333 4.44089e-18 -0.0333333 -0.0166667 1.77636e-18 -0.0333333 1.77636e-18 5.32907e-18 -0.0333333 0.0166667 0 -0.0333333 0.0333333 0.0166667 0.0333333 -0.0333333 0.0166667 0.0333333 -0.0166667 0.0166667 0.0333333 -2.66454e-18 0.0166667 0.0333333 0.0166667 0.0166667 0.0333333 0.0333333 0.0166667 0.0166667 -0.0333333 0.0166667 0.0166667 -0.0166667 0.0166667 0.0166667 3.10862e-18 0.0166667 0.0166667 0.0166667 0.0166667 0.0166667 0.0333333 0.0166667 -1.24345e-17 -0.0333333 0.0166667 -1.37668e-17 -0.0166667 0.0166667 -3.55271e-18 -1.77636e-18 0.0166667 -6.21725e-18 0.0166667 0.0166667 -8.88178e-19 0.0333333 0.0166667 -0.0166667 -0.0333333 0.0166667 -0.0166667 -0.0166667 0.0166667 -0.0166667 2.66454e-18 0.0166667 -0.0166667 0.0166667 0.0166667 -0.0166667 0.0333333 0.0166667 -0.0333333 -0.0333333 0.0166667 -0.0333333 -0.0166667 0.0166667 -0.0333333 0 0.0166667 -0.0333333 0.0166667 0.0166667 -0.0333333 0.0333333 0.0333333 0.0333333 -0.0333333 0.0333333 0.0333333 -0.0166667 0.0333333 0.0333333 3.33067e-19 0.0333333 0.0333333 0.0166667 0.0333333 0.0333333 0.0333333 0.0333333 0.0166667 -0.0333333 0.0333333 0.0166667 -0.0166667 0.0333333 0.0166667 1.11022e-18 0.0333333 0.0166667 0.0166667 0.0333333 0.0166667 0.0333333 0.0333333 -4.44089e-18 -0.0333333 0.0333333 -4.21885e-18 -0.0166667 0.0333333 8.88178e-19 8.88178e-19 0.0333333 -1.33227e-18 0.0166667 0.0333333 3.55271e-18 0.0333333 0.0333333 -0.0166667 -0.0333333 0.0333333 -0.0166667 -0.0166667 0.0333333 -0.0166667 2.22045e-18 0.0333333 -0.0166667 0.0166667 0.0333333 -0.0166667 0.0333333 0.0333333 -0.0333333 -0.0333333 0.0333333 -0.0333333 -0.0166667 0.0333333 -0.0333333 2.22045e-18 0.0333333 -0.0333333 0.0166667 0.0333333 -0.0333333 0.0333333 </DataArray>
</Points>
<Cells>
<DataArray type="Int32" Name="connectivity" format="ascii">
68 22 3 23 218 188 63 193 218 188 63 193 219 189 64 194 219 189 64 194 220 190 65 195 220 190 65 195 221 191 66 196 221 191 66 196 222 192 67 197 222 192 67 197 97 42 7 43 69 68 23 24 223 218 193 198 223 218 193 198 224 219 194 199 224 219 194 199 225 220 195 200 225 220 195 200 226 221 196 201 226 221 196 201 227 222 197 202 227 222 197 202 96 97 43 44 70 69 24 25 228 223 198 203 228 223 198 203 229 224 199 204 229 224 199 204 230 225 200 205 230 225 200 205 231 226 201 206 231 226 201 206 232 227 202 207 232 227 202 207 95 96 44 45 71 70 25 26 233 228 203 208 233 228 203 208 234 229 204 209 234 229 204 209 235 230 205 210 235 230 205 210 236 231 206 211 236 231 206 211 237 232 207 212 237 232 207 212 94 95 45 46 72 71 26 27 238 233 208 213 238 233 208 213 239 234 209 214 239 234 209 214 240 235 210 215 240 235 210 215 241 236 211 216 241 236 211 216 242 237 212 217 242 237 212 217 93 94 46 47 8 72 27 0 118 238 213 48 118 238 213 48 119 239 214 49 119 239 214 49 120 240 215 50 120 240 215 50 121 241 216 51 121 241 216 51 122 242 217 52 122 242 217 52 28 93 47 4 73 21 22 68 243 183 188 218 243 183 188 218 244 184 189 219 244 184 189 219 245 185 190 220 245 185 190 220 246 186 191 221 246 186 191 221 247 187 192 222 247 187 192 222 102 41 42 97 74 73 68 69 248 243 218 223 248 243 218 223 249 244 219 224 249 244 219 224 250 245 220 225 250 245 220 225 251 246 221 226 251 246 221 226 252 247 222 227 252 247 222 227 101 102 97 96 75 74 69 70 253 248 223 228 253 248 223 228 254 249 224 229 254 249 224 229 255 250 225 230 255 250 225 230 256 251 226 231 256 251 226 231 257 252 227 232 257 252 227 232 100 101 96 95 76 75 70 71 258 253 228 233 258 253 228 233 259 254 229 234 259 254 229 234 260 255 230 235 260 255 230 235 261 256 231 236 261 256 231 236 262 257 232 237 262 257 232 237 99 100 95 94 77 76 71 72 263 258 233 238 263 258 233 238 264 259 234 239 264 259 234 239 265 260 235 240 265 260 235 240 266 261 236 241 266 261 236 241 267 262 237 242 267 262 237 242 98 99 94 93 9 77 72 8 123 263 238 118 123 263 238 118 124 264 239 119 124 264 239 119 125 265 240 120 125 265 240 120 126 266 241 121 126 266 241 121 127 267 242 122 127 267 242 122 29 98 93 28 78 20 21 73 268 178 183 243 268 178 183 243 269 179 184 244 269 179 184 244 270 180 185 245 270 180 185 245 271 181 186 246 271 181 186 246 272 182 187 247 272 182 187 247 107 40 41 102 79 78 73 74 273 268 243 248 273 268 243 248 274 269 244 249 274 269 244 249 275 270 245 250 275 270 245 250 276 271 246 251 276 271 246 251 277 272 247 252 277 272 247 252 106 107 102 101 80 79 74 75 278 273 248 253 278 273 248 253 279 274 249 254 279 274 249 254 280 275 250 255 280 275 250 255 281 276 251 256 281 276 251 256 282 277 252 257 282 277 252 257 105 106 101 100 81 80 75 76 283 278 253 258 283 278 253 258 284 279 254 259 284 279 254 259 285 280 255 260 285 280 255 260 286 281 256 261 286 281 256 261 287 282 257 262 287 282 257 262 104 105 100 99 82 81 76 77 288 283 258 263 288 283 258 263 289 284 259 264 289 284 259 264 290 285 260 265 290 285 260 265 291 286 261 266 291 286 261 266 292 287 262 267 292 287 262 267 103 104 99 98 10 82 77 9 128 288 263 123 128 288 263 123 129 289 264 124 129 289 264 124 130 290 265 125 130 290 265 125 131 291 266 126 131 291 266 126 132 292 267 127 132 292 267 127 30 103 98 29 83 19 20 78 293 173 178 268 293 173 178 268 294 174 179 269 294 174 179 269 295 175 180 270 295 175 180 270 296 176 181 271 296 176 181 271 297 177 182 272 297 177 182 272 112 39 40 107 84 83 78 79 298 293 268 273 298 293 268 273 299 294 269 274 299 294 269 274 300 295 270 275 300 295 270 275 301 296 271 276 301 296 271 276 302 297 272 277 302 297 272 277 111 112 107 106 85 84 79 80 303 298 273 278 303 298 273 278 304 299 274 279 304 299 274 279 305 300 275 280 305 300 275 280 306 301 276 281 306 301 276 281 307 302 277 282 307 302 277 282 110 111 106 105 86 85 80 81 308 303 278 283 308 303 278 283 309 304 279 284 309 304 279 284 310 305 280 285 310 305 280 285 311 306 281 286 311 306 281 286 312 307 282 287 312 307 282 287 109 110 105 104 87 86 81 82 313 308 283 288 313 308 283 288 314 309 284 289 314 309 284 289 315 310 285 290 315 310 285 290 316 311 286 291 316 311 286 291 317 312 287 292 317 312 287 292 108 109 104 103 11 87 82 10 133 313 288 128 133 313 288 128 134 314 289 129 134 314 289 129 135 315 290 130 135 315 290 130 136 316 291 131 136 316 291 131 137 317 292 132 137 317 292 132 31 108 103 30 88 18 19 83 318 168 173 293 318 168 173 293 319 169 174 294 319 169 174 294 320 170 175 295 320 170 175 295 321 171 176 296 321 171 176 296 322 172 177 297 322 172 177 297 117 38 39 112 89 88 83 84 323 318 293 298 323 318 293 298 324 319 294 299 324 319 294 299 325 320 295 300 325 320 295 300 326 321 296 301 326 321 296 301 327 322 297 302 327 322 297 302 116 117 112 111 90 89 84 85 328 323 298 303 328 323 298 303 329 324 299 304 329 324 299 304 330 325 300 305 330 325 300 305 331 326 301 306 331 326 301 306 332 327 302 307 332 327 302 307 115 116 111 110 91 90 85 86 333 328 303 308 333 328 303 308 334 329 304 309 334 329 304 309 335 330 305 310 335 330 305 310 336 331 306 311 336 331 306 311 337 332 307 312 337 332 307 312 114 115 110 109 92 91 86 87 338 333 308 313 338 333 308 313 339 334 309 314 339 334 309 314 340 335 310 315 340 335 310 315 341 336 311 316 341 336 311 316 342 337 312 317 342 337 312 317 113 114 109 108 12 92 87 11 138 338 313 133 138 338 313 133 139 339 314 134 139 339 314 134 140 340 315 135 140 340 315 135 141 341 316 136 141 341 316 136 142 342 317 137 142 342 317 137 32 113 108 31 17 2 18 88 163 58 168 318 163 58 168 318 164 59 169 319 164 59 169 319 165 60 170 320 165 60 170 320 166 61 171 321 166 61 171 321 167 62 172 322 167 62 172 322 37 6 38 117 16 17 88 89 158 163 318 323 158 163 318 323 159 164 319 324 159 164 319 324 160 165 320 325 160 165 320 325 161 166 321 326 161 166 321 326 162 167 322 327 162 167 322 327 36 37 117 116 15 16 89 90 153 158 323 328 153 158 323 328 154 159 324 329 154 159 324 329 155 160 325 330 155 160 325 330 156 161 326 331 156 161 326 331 157 162 327 332 157 162 327 332 35 36 116 115 14 15 90 91 148 153 328 333 148 153 328 333 149 154 329 334 149 154 329 334 150 155 330 335 150 155 330 335 151 156 331 336 151 156 331 336 152 157 332 337 152 157 332 337 34 35 115 114 13 14 91 92 143 148 333 338 143 148 333 338 144 149 334 339 144 149 334 339 145 150 335 340 145 150 335 340 146 151 336 341 146 151 336 341 147 152 337 342 147 152 337 342 33 34 114 113 1 13 92 12 53 143 338 138 53 143 338 138 54 144 339 139 54 144 339 139 55 145 340 140 55 145 340 140 56 146 341 141 56 146 341 141 57 147 342 142 57 147 342 142 5 33 113 32 </DataArray>
<DataArray type="Int32" Name="offsets" format="ascii">
8 16 24 32 40 48 56 64 72 80 88 96 104 112 120 128 136 144 152 160 168 176 184 192 200 208 216 224 232 240 248 256 264 272 280 288 296 304 312 320 328 336 344 352 360 368 376 384 392 400 408 416 424 432 440 448 456 464 472 480 488 496 504 512 520 528 536 544 552 560 568 576 584 592 600 608 616 624 632 640 648 656 664 672 680 688 696 704 712 720 728 736 744 752 760 768 776 784 792 800 808 816 824 832 840 848 856 864 872 880 888 896 904 912 920 928 936 944 952 960 968 976 984 992 1000 1008 1016 1024 1032 1040 1048 1056 1064 1072 1080 1088 1096 1104 1112 1120 1128 1136 1144 1152 1160 1168 1176 1184 1192 1200 1208 1216 1224 1232 1240 1248 1256 1264 1272 1280 1288 1296 1304 1312 1320 1328 1336 1344 1352 1360 1368 1376 1384 1392 1400 1408 1416 1424 1432 1440 1448 1456 1464 1472 1480 1488 1496 1504 1512 1520 1528 1536 1544 1552 1560 1568 1576 1584 1592 1600 1608 1616 1624 1632 1640 1648 1656 1664 1672 1680 1688 1696 1704 1712 1720 1728 </DataArray>
<DataArray type="UInt8" Name="types" format="ascii">
12 12 12 12 12 12 12 12 12 12 12 12 12 12 12 12 12 12 12 12 12 12 12 12 12 12 12 12 12 12 12 12 12 12 12 12 12 12 12 12 12 12 12 12 12 12 12 12 12 12 12 12 12 12 12 12 12 12 12 12 12 12 12 12 12 12 12 12 12 12 12 12 12 12 12 12 12 12 12 12 12 12 12 12 12 12 12 12 12 12 12 12 12 12 12 12 12 12 12 12 12 12 12 12 12 12 12 12 12 12 12 12 12 12 12 12 12 12 12 12 12 12 12 12 12 12 12 12 12 12 12 12 12 12 12 12 12 12 12 12 12 12 12 12 12 12 12 12 12 12 12 12 12 12 12 12 12 12 12 12 12 12 12 12 12 12 12 12 12 12 12 12 12 12 12 12 12 12 12 12 12 12 12 12 12 12 12 12 12 12 12 12 12 12 12 12 12 12 12 12 12 12 12 12 12 12 12 12 12 12 12 12 12 12 12 12 </DataArray>
</Cells>
<CellData Scalars="scalars">
<DataArray type="Float32" Name="number_density" format="ascii">
1.08e+16 8.64e+15 8.64e+15 1.08e+16 6.48e+15 1.08e+16 1.08e+16 2.16e+16 6.48e+15 4.32e+15 8.64e+15 8.64e+15 1.296e+16 1.08e+16 1.512e+16 1.512e+16 8.64e+15 8.64e+15 1.08e+16 4.32e+15 4.32e+15 0 1.512e+16 6.48e+15 4.32e+15 2.16e+15 6.48e+15 1.08e+16 4.32e+15 8.64e+15 1.512e+16 4.32e+15 4.32e+15 1.728e+16 1.296e+16 2.376e+16 8.64e+15 1.296e+16 6.48e+15 1.08e+16 4.32e+15 6.48e+15 8.64e+15 1.08e+16 1.296e+16 1.08e+16 8.64e+15 4.32e+15 8.64e+15 2.16e+16 8.64e+15 1.728e+16 1.296e+16 1.728e+16 1.944e+16 2.16e+15 1.08e+16 2.16e+15 1.512e+16 1.08e+16 1.296e+16 2.16e+15 1.296e+16 6.48e+15 8.64e+15 2.16e+15 1.08e+16 6.48e+15 0 8.64e+15 8.64e+15 4.32e+15 1.512e+16 8.64e+15 6.48e+15 1.08e+16 1.08e+16 1.296e+16 1.08e+16 1.296e+16 1.296e+16 1.08e+16 1.512e+16 1.08e+16 1.512e+16 6.48e+15 1.512e+16 1.512e+16 4.32e+15 1.296e+16 1.512e+16 4.32e+15 1.296e+16 8.64e+15 6.48e+15 1.296e+16 4.32e+15 1.08e+16 1.08e+16 8.64e+15 0 4.32e+15 1.296e+16 8.64e+15 2.16e+15 1.512e+16 2.16e+15 1.728e+16 8.64e+15 1.296e+16 1.08e+16 1.296e+16 1.512e+16 1.296e+16 1.296e+16 6.48e+15 2.16e+16 2.16e+16 2.16e+16 1.512e+16 4.32e+15 8.64e+15 1.296e+16 2.16e+16 4.32e+15 2.16e+15 4.32e+15 4.32e+15 8.64e+15 1.08e+16 1.512e+16 1.296e+16 1.728e+16 6.48e+15 6.48e+15 4.32e+15 1.512e+16 4.32e+15 6.48e+15 2.16e+15 6.48e+15 1.08e+16 2.16e+15 1.728e+16 1.08e+16 8.64e+15 1.296e+16 1.512e+16 1.08e+16 1.08e+16 1.08e+16 4.32e+15 6.48e+15 1.296e+16 8.64e+15 1.728e+16 1.296e+16 2.16e+15 1.512e+16 1.728e+16 1.08e+16 4.32e+15 1.08e+16 1.296e+16 2.16e+16 1.512e+16 1.296e+16 6.48e+15 1.944e+16 1.296e+16 8.64e+15 6.48e+15 2.16e+15 1.512e+16 6.48e+15 1.08e+16 1.08e+16 1.296e+16 4.32e+15 6.48e+15 1.512e+16 6.48e+15 1.728e+16 1.08e+16 4.32e+15 1.296e+16 4.32e+15 1.08e+16 6.48e+15 6.48e+15 8.64e+15 1.08e+16 1.08e+16 1.08e+16 1.08e+16 1.08e+16 2.376e+16 6.48e+15 8.64e+15 1.08e+16 1.08e+16 1.08e+16 4.32e+15 6.48e+15 1.944e+16 4.32e+15 1.08e+16 8.64e+15 1.296e+16 2.16e+15 4.32e+15 2.16e+15 1.08e+16 8.64e+15 8.64e+15 1.08e+16 </DataArray>
<DataArray type="Float32" Name="potential" format="ascii">
0 0 0 0 0 0 0 0 0 0 0 0 0 0 0 0 0 0 0 0 0 0 0 0 0 0 0 0 0 0 0 0 0 0 0 0 0 0 0 0 0 0 0 0 0 0 0 0 0 0 0 0 0 0 0 0 0 0 0 0 0 0 0 0 0 0 0 0 0 0 0 0 0 0 0 0 0 0 0 0 0 0 0 0 0 0 0 0 0 0 0 0 0 0 0 0 0 0 0 0 0 0 0 0 0 0 0 0 0 0 0 0 0 0 0 0 0 0 0 0 0 0 0 0 0 0 0 0 0 0 0 0 0 0 0 0 0 0 0 0 0 0 0 0 0 0 0 0 0 0 0 0 0 0 0 0 0 0 0 0 0 0 0 0 0 0 0 0 0 0 0 0 0 0 0 0 0 0 0 0 0 0 0 0 0 0 0 0 0 0 0 0 0 0 0 0 0 0 0 0 0 0 0 0 0 0 0 0 0 0 0 0 0 0 0 0 </DataArray>
<DataArray type="Float32" Name="temperature" format="ascii">
238.087 182.937 107.575 255.243 262.75 366.723 233.63 288.196 330.762 124.283 200.036 170.834 310.619 276.626 179.503 383.657 270.51 294.697 227.744 52.9357 361.997 0 286.319 193.848 124.663 1e-15 62.0526 277.76 59.6671 110.547 221.849 43.0548 87.2722 242.417 390.25 248.209 88.4231 285.488 229.966 169.805 54.6656 298.343 273.935 312.226 494.058 245.221 192.957 308.029 295.157 379.698 171.355 261.349 376.113 146.004 422.084 1e-15 201.076 1e-15 382.43 515.523 307.376 1e-15 292.166 266.191 182.871 1e-15 219.855 295.557 0 290.754 365.382 97.8584 280.674 237.563 345.344 377.08 374.226 240.542 264.741 213.109 276.971 360.033 187.193 336.358 267.849 161.947 387.947 253.238 90.2664 280.528 329.707 21.691 429.489 273.987 289.274 190.754 116.204 118.12 544.98 202.378 0 47.0599 338.247 262.712 1e-15 229.699 1e-15 258.78 170.76 551.545 285.242 166.985 323.764 457.75 267.001 102.928 651.772 579.789 362.016 440.615 12.7404 384.294 321.076 658.74 641.593 1.23133e-14 141.043 163.682 317.396 422.949 392.591 339.074 327.62 542.197 346.325 56.8116 473.157 335.859 257.957 1e-15 119.764 550.861 2.39599e-14 262.302 207.667 160.827 220.966 270.418 279.768 273.298 422.888 508.945 322.722 585.29 224.54 187.739 407.59 1e-15 475.303 355.848 353.591 669.176 257.9 240.141 416.261 337.477 347.783 182.464 255.484 412.316 188.874 422.464 1e-15 271.997 177.484 446.072 354.333 238.322 171.271 178.054 187.646 287.838 172.9 535.439 43.533 241.811 192.43 194.053 151.446 115.531 137.972 272.549 211.767 531.98 555.325 260.63 412.894 97.8948 204.272 272.489 225.513 371.37 55.1389 226.763 389.025 43.971 175.046 400.64 289.243 4.72531e-14 35.9691 1e-15 470.457 183.221 142.946 167.743 </DataArray>
<DataArray type="Float32" Name="velocity" format="ascii">
227.664 276.183 385.204 376.37 291.518 205.087 338.589 355.126 747.185 599.4 512.772 403.597 259.148 576.661 707.784 728.137 402.808 186.201 307.915 418.922 729.478 0 583.74 707.393 129.214 635.713 628.235 468.873 348.546 314.176 87.9415 303.214 667.047 319.374 238.272 190.128 235.94 235.305 340.756 346.915 377.905 182.092 387.644 708.471 742.45 838.409 286.836 180.812 644.491 941.562 1054.9 1177.28 696.852 426.084 501.682 635.064 1050.65 1320.88 682.241 479.922 612.507 831.119 863.363 693.105 646.806 672.456 169.541 811.651 0 799.175 317.631 245.889 256.719 324.274 624.697 365.373 229.569 121.073 685.022 824.816 1037.55 724.439 667.694 518.109 860.954 1298.03 1728.59 1520.35 670.131 527.551 887.731 1288.93 1641.01 1433.21 834.685 594.125 617.606 863.677 706.125 1061.72 0 478.799 373.14 502.427 532.916 565.783 651.845 232.615 385.948 355.863 283.096 274.423 229.843 181.259 422.651 949.382 994.587 811.004 686.346 305.627 746.085 1129.96 1655.45 1328.55 1149.01 545.377 1027.34 1277.99 1590.66 1344.86 901.155 439.963 531.208 719.562 862.924 994.205 636.306 695.33 513.108 365.35 452.152 651.172 405.088 289.156 306.67 246.439 578.985 265.603 213.431 304.919 414.79 371.107 269.603 278.148 199.059 150.101 617.126 865.552 718.238 773.195 371.035 308.852 362.095 588.291 753.506 621.013 682.944 288.761 414.202 425.174 762.538 781.435 445.719 255.506 254.817 326.066 494.603 400.556 475.544 464.117 147.691 366.481 106.633 168.882 226.164 130.914 163.547 224.742 209.055 284.677 344.282 283.014 325.159 231.995 412.566 229.706 99.1861 261.405 203.371 439.166 571.662 541.181 426.553 542.293 198.641 321.451 261.264 355.503 366.303 484.735 114.659 314.235 185.164 419.193 287.96 151.917 </DataArray>
<DataArray type="Float32" Name="E_field" format="ascii">
0 0 0 0 0 0 0 0 0 0 0 0 0 0 0 0 0 0 0 0 0 0 0 0 0 0 0 0 0 0 0 0 0 0 0 0 0 0 0 0 0 0 0 0 0 0 0 0 0 0 0 0 0 0 0 0 0 0 0 0 0 0 0 0 0 0 0 0 0 0 0 0 0 0 0 0 0 0 0 0 0 0 0 0 0 0 0 0 0 0 0 0 0 0 0 0 0 0 0 0 0 0 0 0 0 0 0 0 0 0 0 0 0 0 0 0 0 0 0 0 0 0 0 0 0 0 0 0 0 0 0 0 0 0 0 0 0 0 0 0 0 0 0 0 0 0 0 0 0 0 0 0 0 0 0 0 0 0 0 0 0 0 0 0 0 0 0 0 0 0 0 0 0 0 0 0 0 0 0 0 0 0 0 0 0 0 0 0 0 0 0 0 0 0 0 0 0 0 0 0 0 0 0 0 0 0 0 0 0 0 0 0 0 0 0 0 </DataArray>
</CellData>
<PointData Scalars="number_density">
<DataArray type="Float32" Name="number_density" format="ascii">
1.512e+16 4.32e+15 1.512e+16 1.08e+16 2.376e+16 1.08e+16 1.296e+16 1.08e+16 1.296e+16 1.188e+16 9.72e+15 6.48e+15 5.4e+15 1.188e+16 1.404e+16 9.72e+15 7.56e+15 9.72e+15 1.296e+16 9.72e+15 1.188e+16 1.188e+16 9.72e+15 1.08e+16 1.188e+16 1.188e+16 7.56e+15 9.72e+15 1.404e+16 1.08e+16 1.728e+16 1.188e+16 8.64e+15 6.48e+15 4.32e+15 6.48e+15 8.64e+15 1.188e+16 1.188e+16 1.188e+16 1.296e+16 9.72e+15 8.64e+15 9.72e+15 8.64e+15 7.56e+15 7.56e+15 1.62e+16 9.72e+15 4.32e+15 1.08e+16 1.512e+16 1.836e+16 3.24e+15 6.48e+15 9.72e+15 8.64e+15 9.72e+15 1.08e+16 1.188e+16 1.404e+16 7.56e+15 8.64e+15 9.72e+15 8.64e+15 9.72e+15 8.64e+15 8.64e+15 9.72e+15 1.026e+16 1.296e+16 1.188e+16 1.08e+16 1.08e+16 1.08e+16 1.458e+16 1.296e+16 1.026e+16 1.188e+16 1.08e+16 9.72e+15 1.026e+16 1.026e+16 1.08e+16 1.026e+16 8.1e+15 1.296e+16 1.242e+16 1.026e+16 9.72e+15 1.08e+16 1.458e+16 1.242e+16 9.72e+15 7.02e+15 1.08e+16 9.72e+15 7.56e+15 7.02e+15 7.56e+15 1.35e+16 1.134e+16 8.64e+15 1.08e+16 8.64e+15 1.026e+16 1.026e+16 1.296e+16 1.08e+16 9.72e+15 6.48e+15 9.72e+15 1.404e+16 8.64e+15 7.56e+15 5.94e+15 9.72e+15 1.296e+16 9.18e+15 3.78e+15 7.56e+15 1.188e+16 1.242e+16 9.72e+15 4.32e+15 6.48e+15 8.64e+15 8.1e+15 7.56e+15 4.86e+15 8.64e+15 7.56e+15 9.72e+15 6.48e+15 7.56e+15 1.026e+16 7.56e+15 7.56e+15 5.94e+15 8.64e+15 1.08e+16 8.64e+15 7.56e+15 7.56e+15 7.02e+15 9.72e+15 9.72e+15 8.64e+15 1.08e+16 9.18e+15 1.026e+16 9.18e+15 6.48e+15 1.026e+16 1.08e+16 1.08e+16 1.242e+16 1.026e+16 9.18e+15 9.72e+15 8.64e+15 1.242e+16 1.242e+16 9.18e+15 1.026e+16 1.026e+16 7.56e+15 9.18e+15 1.026e+16 1.134e+16 1.404e+16 1.026e+16 9.72e+15 1.026e+16 1.134e+16 1.296e+16 1.35e+16 1.242e+16 1.134e+16 9.72e+15 1.026e+16 1.242e+16 1.296e+16 1.134e+16 8.64e+15 8.64e+15 9.18e+15 8.64e+15 1.026e+16 9.18e+15 9.18e+15 8.1e+15 7.02e+15 1.296e+16 1.134e+16 7.56e+15 7.56e+15 8.64e+15 1.404e+16 1.35e+16 1.026e+16 9.18e+15 8.64e+15 9.72e+15 8.64e+15 8.64e+15 9.72e+15 9.72e+15 5.4e+15 4.32e+15 5.4e+15 7.56e+15 8.64e+15 6.48e+15 4.32e+15 9.72e+15 1.134e+16 1.242e+16 1.161e+16 1.107e+16 8.91e+15 8.1e+15 7.29e+15 1.323e+16 1.35e+16 1.134e+16 1.08e+16 9.72e+15 1.134e+16 9.72e+15 9.18e+15 1.08e+16 1.188e+16 7.29e+15 5.67e+15 6.75e+15 7.83e+15 8.91e+15 7.29e+15 4.86e+15 8.37e+15 9.72e+15 9.18e+15 1.107e+16 1.053e+16 1.026e+16 1.026e+16 9.18e+15 1.188e+16 1.269e+16 1.296e+16 1.188e+16 1.08e+16 1.161e+16 1.026e+16 1.134e+16 1.026e+16 1.161e+16 8.91e+15 8.37e+15 9.18e+15 7.02e+15 7.56e+15 8.64e+15 6.75e+15 8.1e+15 7.29e+15 5.94e+15 1.107e+16 1.161e+16 1.35e+16 1.485e+16 1.431e+16 9.72e+15 1.215e+16 1.647e+16 1.431e+16 1.08e+16 7.83e+15 9.18e+15 1.323e+16 1.08e+16 8.91e+15 8.37e+15 8.1e+15 8.91e+15 8.64e+15 8.91e+15 8.64e+15 6.75e+15 8.1e+15 7.29e+15 7.83e+15 9.45e+15 1.053e+16 1.431e+16 1.485e+16 1.404e+16 7.83e+15 9.72e+15 1.62e+16 1.485e+16 1.053e+16 7.56e+15 1.08e+16 1.539e+16 1.35e+16 8.64e+15 1.107e+16 1.026e+16 1.026e+16 1.026e+16 1.053e+16 1.026e+16 8.1e+15 8.37e+15 7.29e+15 8.37e+15 8.91e+15 9.18e+15 1.107e+16 9.72e+15 1.053e+16 8.37e+15 8.37e+15 1.08e+16 1.242e+16 1.134e+16 9.99e+15 1.188e+16 1.404e+16 1.323e+16 9.45e+15 1.242e+16 1.161e+16 1.161e+16 9.18e+15 7.83e+15 9.99e+15 8.91e+15 9.72e+15 8.1e+15 7.83e+15 </DataArray>
<DataArray type="Float32" Name="potential" format="ascii">
0 0 0 0 0 0 0 0 0 0 0 0 0 0 0 0 0 0 0 0 0 0 0 0 0 0 0 0 0 0 0 0 0 0 0 0 0 0 0 0 0 0 0 0 0 0 0 0 0 0 0 0 0 0 0 0 0 0 0 0 0 0 0 0 0 0 0 0 0 0 0 0 0 0 0 0 0 0 0 0 0 0 0 0 0 0 0 0 0 0 0 0 0 0 0 0 0 0 0 0 0 0 0 0 0 0 0 0 0 0 0 0 0 0 0 0 0 0 0 0 0 0 0 0 0 0 0 0 0 0 0 0 0 0 0 0 0 0 0 0 0 0 0 0 0 0 0 0 0 0 0 0 0 0 0 0 0 0 0 0 0 0 0 0 0 0 0 0 0 0 0 0 0 0 0 0 0 0 0 0 0 0 0 0 0 0 0 0 0 0 0 0 0 0 0 0 0 0 0 0 0 0 0 0 0 0 0 0 0 0 0 0 0 0 0 0 0 0 0 0 0 0 0 0 0 0 0 0 0 0 0 0 0 0 0 0 0 0 0 0 0 0 0 0 0 0 0 0 0 0 0 0 0 0 0 0 0 0 0 0 0 0 0 0 0 0 0 0 0 0 0 0 0 0 0 0 0 0 0 0 0 0 0 0 0 0 0 0 0 0 0 0 0 0 0 0 0 0 0 0 0 0 0 0 0 0 0 0 0 0 0 0 0 0 0 0 0 0 0 0 0 0 0 0 0 0 0 0 0 0 0 0 0 0 0 0 0 0 0 0 0 0 0 </DataArray>
<DataArray type="Float32" Name="temperature" format="ascii">