<VTKFile type="UnstructuredGrid" version="0.1" byte_order="LittleEndian">
<UnstructuredGrid>
<Piece NumberOfPoints="343" NumberOfCells="216">
<Points>
<DataArray type="Float32" NumberOfComponents="3" format="ascii">
-0.05 -0.05 -0.05 0.05 -0.05 -0.05 0.05 0.05 -0.05 -0.05 0.05 -0.05 -0.05 -0.05 0.05 0.05 -0.05 0.05 0.05 0.05 0.05 -0.05 0.05 0.05 -0.0333333 -0.05 -0.05 -0.0166667 -0.05 -0.05 0 -0.05 -0.05 0.0166667 -0.05 -0.05 0.0333333 -0.05 -0.05 0.05 -0.0333333 -0.05 0.05 -0.0166667 -0.05 0.05 0 -0.05 0.05 0.0166667 -0.05 0.05 0.0333333 -0.05 0.0333333 0.05 -0.05 0.0166667 0.05 -0.05 0 0.05 -0.05 -0.0166667 0.05 -0.05 -0.0333333 0.05 -0.05 -0.05 0.0333333 -0.05 -0.05 0.0166667 -0.05 -0.05 0 -0.05 -0.05 -0.0166667 -0.05 -0.05 -0.0333333 -0.05 -0.0333333 -0.05 0.05 -0.0166667 -0.05 0.05 0 -0.05 0.05 0.0166667 -0.05 0.05 0.0333333 -0.05 0.05 0.05 -0.0333333 0.05 0.05 -0.0166667 0.05 0.05 0 0.05 0.05 0.0166667 0.05 0.05 0.0333333 0.05 0.0333333 0.05 0.05 0.0166667 0.05 0.05 0 0.05 0.05 -0.0166667 0.05 0.05 -0.0333333 0.05 0.05 -0.05 0.0333333 0.05 -0.05 0.0166667 0.05 -0.05 0 0.05 -0.05 -0.0166667 0.05 -0.05 -0.0333333 0.05 -0.05 -0.05 -0.0333333 -0.05 -0.05 -0.0166667 -0.05 -0.05 0 -0.05 -0.05 0.0166667 -0.05 -0.05 0.0333333 0.05 -0.05 -0.0333333 0.05 -0.05 -0.0166667 0.05 -0.05 0 0.05 -0.05 0.0166667 0.05 -0.05 0.0333333 0.05 0.05 -0.0333333 0.05 0.05 -0.0166667 0.05 0.05 0 0.05 0.05 0.0166667 0.05 0.05 0.0333333 -0.05 0.05 -0.0333333 -0.05 0.05 -0.0166667 -0.05 0.05 0 -0.05 0.05 0.0166667 -0.05 0.05 0.0333333 -0.0333333 0.0333333 -0.05 -0.0333333 0.0166667 -0.05 -0.0333333 -3.55271e-18 -0.05 -0.0333333 -0.0166667 -0.05 -0.0333333 -0.0333333 -0.05 -0.0166667 0.0333333 -0.05 -0.0166667 0.0166667 -0.05 -0.0166667 -7.10543e-18 -0.05 -0.0166667 -0.0166667 -0.05 -0.0166667 -0.0333333 -0.05 1.77636e-18 0.0333333 -0.05 5.32907e-18 0.0166667 -0.05 3.55271e-18 -1.77636e-18 -0.05 7.10543e-18 -0.0166667 -0.05 3.55271e-18 -0.0333333 -0.05 0.0166667 0.0333333 -0.05 0.0166667 0.0166667 -0.05 0.0166667 -7.10543e-18 -0.05 0.0166667 -0.0166667 -0.05 0.0166667 -0.0333333 -0.05 0.0333333 0.0333333 -0.05 0.0333333 0.0166667 -0.05 0.0333333 -1.77636e-18 -0.05 0.0333333 -0.0166667 -0.05 0.0333333 -0.0333333 -0.05 -0.0333333 -0.0333333 0.05 -0.0333333 -0.0166667 0.05 -0.0333333 0 0.05 -0.0333333 0.0166667 0.05 -0.0333333 0.0333333 0.05 -0.0166667 -0.0333333 0.05 -0.0166667 -0.0166667 0.05 -0.0166667 0 0.05 -0.0166667 0.0166667 0.05 -0.0166667 0.0333333 0.05 0 -0.0333333 0.05 0 -0.0166667 0.05 0 0 0.05 0 0.0166667 0.05 0 0.0333333 0.05 0.0166667 -0.0333333 0.05 0.0166667 -0.0166667 0.05 0.0166667 0 0.05 0.0166667 0.0166667 0.05 0.0166667 0.0333333 0.05 0.0333333 -0.0333333 0.05 0.0333333 -0.0166667 0.05 0.0333333 1.77636e-18 0.05 0.0333333 0.0166667 0.05 0.0333333 0.0333333 0.05 -0.0333333 -0.05 -0.0333333 -0.0333333 -0.05 -0.0166667 -0.0333333 -0.05 0 -0.0333333 -0.05 0.0166667 -0.0333333 -0.05 0.0333333 -0.0166667 -0.05 -0.0333333 -0.0166667 -0.05 -0.0166667 -0.0166667 -0.05 0 -0.0166667 -0.05 0.0166667 -0.0166667 -0.05 0.0333333 0 -0.05 -0.0333333 0 -0.05 -0.0166667 0 -0.05 0 0 -0.05 0.0166667 0 -0.05 0.0333333 0.0166667 -0.05 -0.0333333 0.0166667 -0.05 -0.0166667 0.0166667 -0.05 0 0.0166667 -0.05 0.0166667 0.0166667 -0.05 0.0333333 0.0333333 -0.05 -0.0333333 0.0333333 -0.05 -0.0166667 0.0333333 -0.05 1.77636e-18 0.0333333 -0.05 0.0166667 0.0333333 -0.05 0.0333333 0.05 -0.0333333 -0.0333333 0.05 -0.0333333 -0.0166667 0.05 -0.0333333 0 0.05 -0.0333333 0.0166667 0.05 -0.0333333 0.0333333 0.05 -0.0166667 -0.0333333 0.05 -0.0166667 -0.0166667 0.05 -0.0166667 0 0.05 -0.0166667 0.0166667 0.05 -0.0166667 0.0333333 0.05 0 -0.0333333 0.05 0 -0.0166667 0.05 0 0 0.05 0 0.0166667 0.05 0 0.0333333 0.05 0.0166667 -0.0333333 0.05 0.0166667 -0.0166667 0.05 0.0166667 0 0.05 0.0166667 0.0166667 0.05 0.0166667 0.0333333 0.05 0.0333333 -0.0333333 0.05 0.0333333 -0.0166667 0.05 0.0333333 1.77636e-18 0.05 0.0333333 0.0166667 0.05 0.0333333 0.0333333 0.0333333 0.05 -0.0333333 0.0333333 0.05 -0.0166667 0.0333333 0.05 0 0.0333333 0.05 0.0166667 0.0333333 0.05 0.0333333 0.0166667 0.05 -0.0333333 0.0166667 0.05 -0.0166667 0.0166667 0.05 0 0.0166667 0.05 0.0166667 0.0166667 0.05 0.0333333 0 0.05 -0.0333333 0 0.05 -0.0166667 0 0.05 0 0 0.05 0.0166667 0 0.05 0.0333333 -0.0166667 0.05 -0.0333333 -0.0166667 0.05 -0.0166667 -0.0166667 0.05 0 -0.0166667 0.05 0.0166667 -0.0166667 0.05 0.0333333 -0.0333333 0.05 -0.0333333 -0.0333333 0.05 -0.0166667 -0.0333333 0.05 1.77636e-18 -0.0333333 0.05 0.0166667 -0.0333333 0.05 0.0333333 -0.05 0.0333333 -0.0333333 -0.05 0.0333333 -0.0166667 -0.05 0.0333333 0 -0.05 0.0333333 0.0166667 -0.05 0.0333333 0.0333333 -0.05 0.0166667 -0.0333333 -0.05 0.0166667 -0.0166667 -0.05 0.0166667 0 -0.05 0.0166667 0.0166667 -0.05 0.0166667 0.0333333 -0.05 0 -0.0333333 -0.05 0 -0.0166667 -0.05 0 0 -0.05 0 0.0166667 -0.05 0 0.0333333 -0.05 -0.0166667 -0.0333333 -0.05 -0.0166667 -0.0166667 -0.05 -0.0166667 0 -0.05 -0.0166667 0.0166667 -0.05 -0.0166667 0.0333333 -0.05 -0.0333333 -0.0333333 -0.05 -0.0333333 -0.0166667 -0.05 -0.0333333 1.77636e-18 -0.05 -0.0333333 0.0166667 -0.05 -0.0333333 0.0333333 -0.0333333 0.0333333 -0.0333333 -0.0333333 0.0333333 -0.0166667 -0.0333333 0.0333333 4.44089e-19 -0.0333333 0.0333333 0.0166667 -0.0333333 0.0333333 0.0333333 -0.0333333 0.0166667 -0.0333333 -0.0333333 0.0166667 -0.0166667 -0.0333333 0.0166667 -4.44089e-18 -0.0333333 0.0166667 0.0166667 -0.0333333 0.0166667 0.0333333 -0.0333333 -6.66134e-18 -0.0333333 -0.0333333 -9.76996e-18 -0.0166667 -0.0333333 -1.77636e-18 -1.77636e-18 -0.0333333 -1.77636e-18 0.0166667 -0.0333333 3.55271e-18 0.0333333 -0.0333333 -0.0166667 -0.0333333 -0.0333333 -0.0166667 -0.0166667 -0.0333333 -0.0166667 1.77636e-18 -0.0333333 -0.0166667 0.0166667 -0.0333333 -0.0166667 0.0333333 -0.0333333 -0.0333333 -0.0333333 -0.0333333 -0.0333333 -0.0166667 -0.0333333 -0.0333333 0 -0.0333333 -0.0333333 0.0166667 -0.0333333 -0.0333333 0.0333333 -0.0166667 0.0333333 -0.0333333 -0.0166667 0.0333333 -0.0166667 -0.0166667 0.0333333 2.66454e-18 -0.0166667 0.0333333 0.0166667 -0.0166667 0.0333333 0.0333333 -0.0166667 0.0166667 -0.0333333 -0.0166667 0.0166667 -0.0166667 -0.0166667 0.0166667 -1.77636e-18 -0.0166667 0.0166667 0.0166667 -0.0166667 0.0166667 0.0333333 -0.0166667 -1.06581e-17 -0.0333333 -0.0166667 -1.15463e-17 -0.0166667 -0.0166667 -3.55271e-18 0 -0.0166667 -8.88178e-18 0.0166667 -0.0166667 -1.77636e-18 0.0333333 -0.0166667 -0.0166667 -0.0333333 -0.0166667 -0.0166667 -0.0166667 -0.0166667 -0.0166667 3.55271e-18 -0.0166667 -0.0166667 0.0166667 -0.0166667 -0.0166667 0.0333333 -0.0166667 -0.0333333 -0.0333333 -0.0166667 -0.0333333 -0.0166667 -0.0166667 -0.0333333 0 -0.0166667 -0.0333333 0.0166667 -0.0166667 -0.0333333 0.0333333 3.44169e-18 0.0333333 -0.0333333 1.02141e-17 0.0333333 -0.0166667 2.66454e-18 0.0333333 -8.88178e-19 6.21725e-18 0.0333333 0.0166667 1.33227e-18 0.0333333 0.0333333 7.99361e-18 0.0166667 -0.0333333 8.43769e-18 0.0166667 -0.0166667 8.88178e-19 0.0166667 8.88178e-19 7.99361e-18 0.0166667 0.0166667 3.55271e-18 0.0166667 0.0333333 3.55271e-18 -1.77636e-18 -0.0333333 9.76996e-18 -9.76996e-18 -0.0166667 0 -8.88178e-19 -8.88178e-19 8.88178e-18 -8.88178e-18 0.0166667 1.77636e-18 -1.77636e-18 0.0333333 1.02141e-17 -0.0166667 -0.0333333 1.24345e-17 -0.0166667 -0.0166667 3.55271e-18 -0.0166667 -1.77636e-18 8.88178e-18 -0.0166667 0.0166667 3.55271e-18 -0.0166667 0.0333333 5.77316e-18 -0.0333333 -0.0333333 4.44089e-18 -0.0333333 -0.0166667 1.77636e-18 -0.0333333 1.77636e-18 5.32907e-18 -0.0333333 0.0166667 0 -0.0333333 0.0333333 0.0166667 0.0333333 -0.0333333 0.0166667 0.0333333 -0.0166667 0.0166667 0.0333333 -2.66454e-18 0.0166667 0.0333333 0.0166667 0.0166667 0.0333333 0.0333333 0.0166667 0.0166667 -0.0333333 0.0166667 0.0166667 -0.0166667 0.0166667 0.0166667 3.10862e-18 0.0166667 0.0166667 0.0166667 0.0166667 0.0166667 0.0333333 0.0166667 -1.24345e-17 -0.0333333 0.0166667 -1.37668e-17 -0.0166667 0.0166667 -3.55271e-18 -1.77636e-18 0.0166667 -6.21725e-18 0.0166667 0.0166667 -8.88178e-19 0.0333333 0.0166667 -0.0166667 -0.0333333 0.0166667 -0.0166667 -0.0166667 0.0166667 -0.0166667 2.66454e-18 0.0166667 -0.0166667 0.0166667 0.0166667 -0.0166667 0.0333333 0.0166667 -0.0333333 -0.0333333 0.0166667 -0.0333333 -0.0166667 0.0166667 -0.0333333 0 0.0166667 -0.0333333 0.0166667 0.0166667 -0.0333333 0.0333333 0.0333333 0.0333333 -0.0333333 0.0333333 0.0333333 -0.0166667 0.0333333 0.0333333 3.33067e-19 0.0333333 0.0333333 0.0166667 0.0333333 0.0333333 0.0333333 0.0333333 0.0166667 -0.0333333 0.0333333 0.0166667 -0.0166667 0.0333333 0.0166667 1.11022e-18 0.0333333 0.0166667 0.0166667 0.0333333 0.0166667 0.0333333 0.0333333 -4.44089e-18 -0.0333333 0.0333333 -4.21885e-18 -0.0166667 0.0333333 8.88178e-19 8.88178e-19 0.0333333 -1.33227e-18 0.0166667 0.0333333 3.55271e-18 0.0333333 0.0333333 -0.0166667 -0.0333333 0.0333333 -0.0166667 -0.0166667 0.0333333 -0.0166667 2.22045e-18 0.0333333 -0.0166667 0.0166667 0.0333333 -0.0166667 0.0333333 0.0333333 -0.0333333 -0.0333333 0.0333333 -0.0333333 -0.0166667 0.0333333 -0.0333333 2.22045e-18 0.0333333 -0.0333333 0.0166667 0.0333333 -0.0333333 0.0333333 </DataArray>
</Points>
<Cells>
<DataArray type="Int32" Name="connectivity" format="ascii">
68 22 3 23 218 188 63 193 218 188 63 193 219 189 64 194 219 189 64 194 220 190 65 195 220 190 65 195 221 191 66 196 221 191 66 196 222 192 67 197 222 192 67 197 97 42 7 43 69 68 23 24 223 218 193 198 223 218 193 198 224 219 194 199 224 219 194 199 225 220 195 200 225 220 195 200 226 221 196 201 226 221 196 201 227 222 197 202 227 222 197 202 96 97 43 44 70 69 24 25 228 223 198 203 228 223 198 203 229 224 199 204 229 224 199 204 230 225 200 205 230 225 200 205 231 226 201 206 231 226 201 206 232 227 202 207 232 227 202 207 95 96 44 45 71 70 25 26 233 228 203 208 233 228 203 208 234 229 204 209 234 229 204 209 235 230 205 210 235 230 205 210 236 231 206 211 236 231 206 211 237 232 207 212 237 232 207 212 94 95 45 46 72 71 26 27 238 233 208 213 238 233 208 213 239 234 209 214 239 234 209 214 240 235 210 215 240 235 210 215 241 236 211 216 241 236 211 216 242 237 212 217 242 237 212 217 93 94 46 47 8 72 27 0 118 238 213 48 118 238 213 48 119 239 214 49 119 239 214 49 120 240 215 50 120 240 215 50 121 241 216 51 121 241 216 51 122 242 217 52 122 242 217 52 28 93 47 4 73 21 22 68 243 183 188 218 243 183 188 218 244 184 189 219 244 184 189 219 245 185 190 220 245 185 190 220 246 186 191 221 246 186 191 221 247 187 192 222 247 187 192 222 102 41 42 97 74 73 68 69 248 243 218 223 248 243 218 223 249 244 219 224 249 244 219 224 250 245 220 225 250 245 220 225 251 246 221 226 251 246 221 226 252 247 222 227 252 247 222 227 101 102 97 96 75 74 69 70 253 248 223 228 253 248 223 228 254 249 224 229 254 249 224 229 255 250 225 230 255 250 225 230 256 251 226 231 256 251 226 231 257 252 227 232 257 252 227 232 100 101 96 95 76 75 70 71 258 253 228 233 258 253 228 233 259 254 229 234 259 254 229 234 260 255 230 235 260 255 230 235 261 256 231 236 261 256 231 236 262 257 232 237 262 257 232 237 99 100 95 94 77 76 71 72 263 258 233 238 263 258 233 238 264 259 234 239 264 259 234 239 265 260 235 240 265 260 235 240 266 261 236 241 266 261 236 241 267 262 237 242 267 262 237 242 98 99 94 93 9 77 72 8 123 263 238 118 123 263 238 118 124 264 239 119 124 264 239 119 125 265 240 120 125 265 240 120 126 266 241 121 126 266 241 121 127 267 242 122 127 267 242 122 29 98 93 28 78 20 21 73 268 178 183 243 268 178 183 243 269 179 184 244 269 179 184 244 270 180 185 245 270 180 185 245 271 181 186 246 271 181 186 246 272 182 187 247 272 182 187 247 107 40 41 102 79 78 73 74 273 268 243 248 273 268 243 248 274 269 244 249 274 269 244 249 275 270 245 250 275 270 245 250 276 271 246 251 276 271 246 251 277 272 247 252 277 272 247 252 106 107 102 101 80 79 74 75 278 273 248 253 278 273 248 253 279 274 249 254 279 274 249 254 280 275 250 255 280 275 250 255 281 276 251 256 281 276 251 256 282 277 252 257 282 277 252 257 105 106 101 100 81 80 75 76 283 278 253 258 283 278 253 258 284 279 254 259 284 279 254 259 285 280 255 260 285 280 255 260 286 281 256 261 286 281 256 261 287 282 257 262 287 282 257 262 104 105 100 99 82 81 76 77 288 283 258 263 288 283 258 263 289 284 259 264 289 284 259 264 290 285 260 265 290 285 260 265 291 286 261 266 291 286 261 266 292 287 262 267 292 287 262 267 103 104 99 98 10 82 77 9 128 288 263 123 128 288 263 123 129 289 264 124 129 289 264 124 130 290 265 125 130 290 265 125 131 291 266 126 131 291 266 126 132 292 267 127 132 292 267 127 30 103 98 29 83 19 20 78 293 173 178 268 293 173 178 268 294 174 179 269 294 174 179 269 295 175 180 270 295 175 180 270 296 176 181 271 296 176 181 271 297 177 182 272 297 177 182 272 112 39 40 107 84 83 78 79 298 293 268 273 298 293 268 273 299 294 269 274 299 294 269 274 300 295 270 275 300 295 270 275 301 296 271 276 301 296 271 276 302 297 272 277 302 297 272 277 111 112 107 106 85 84 79 80 303 298 273 278 303 298 273 278 304 299 274 279 304 299 274 279 305 300 275 280 305 300 275 280 306 301 276 281 306 301 276 281 307 302 277 282 307 302 277 282 110 111 106 105 86 85 80 81 308 303 278 283 308 303 278 283 309 304 279 284 309 304 279 284 310 305 280 285 310 305 280 285 311 306 281 286 311 306 281 286 312 307 282 287 312 307 282 287 109 110 105 104 87 86 81 82 313 308 283 288 313 308 283 288 314 309 284 289 314 309 284 289 315 310 285 290 315 310 285 290 316 311 286 291 316 311 286 291 317 312 287 292 317 312 287 292 108 109 104 103 11 87 82 10 133 313 288 128 133 313 288 128 134 314 289 129 134 314 289 129 135 315 290 130 135 315 290 130 136 316 291 131 136 316 291 131 137 317 292 132 137 317 292 132 31 108 103 30 88 18 19 83 318 168 173 293 318 168 173 293 319 169 174 294 319 169 174 294 320 170 175 295 320 170 175 295 321 171 176 296 321 171 176 296 322 172 177 297 322 172 177 297 117 38 39 112 89 88 83 84 323 318 293 298 323 318 293 298 324 319 294 299 324 319 294 299 325 320 295 300 325 320 295 300 326 321 296 301 326 321 296 301 327 322 297 302 327 322 297 302 116 117 112 111 90 89 84 85 328 323 298 303 328 323 298 303 329 324 299 304 329 324 299 304 330 325 300 305 330 325 300 305 331 326 301 306 331 326 301 306 332 327 302 307 332 327 302 307 115 116 111 110 91 90 85 86 333 328 303 308 333 328 303 308 334 329 304 309 334 329 304 309 335 330 305 310 335 330 305 310 336 331 306 311 336 331 306 311 337 332 307 312 337 332 307 312 114 115 110 109 92 91 86 87 338 333 308 313 338 333 308 313 339 334 309 314 339 334 309 314 340 335 310 315 340 335 310 315 341 336 311 316 341 336 311 316 342 337 312 317 342 337 312 317 113 114 109 108 12 92 87 11 138 338 313 133 138 338 313 133 139 339 314 134 139 339 314 134 140 340 315 135 140 340 315 135 141 341 316 136 141 341 316 136 142 342 317 137 142 342 317 137 32 113 108 31 17 2 18 88 163 58 168 318 163 58 168 318 164 59 169 319 164 59 169 319 165 60 170 320 165 60 170 320 166 61 171 321 166 61 171 321 167 62 172 322 167 62 172 322 37 6 38 117 16 17 88 89 158 163 318 323 158 163 318 323 159 164 319 324 159 164 319 324 160 165 320 325 160 165 320 325 161 166 321 326 161 166 321 326 162 167 322 327 162 167 322 327 36 37 117 116 15 16 89 90 153 158 323 328 153 158 323 328 154 159 324 329 154 159 324 329 155 160 325 330 155 160 325 330 156 161 326 331 156 161 326 331 157 162 327 332 157 162 327 332 35 36 116 115 14 15 90 91 148 153 328 333 148 153 328 333 149 154 329 334 149 154 329 334 150 155 330 335 150 155 330 335 151 156 331 336 151 156 331 336 152 157 332 337 152 157 332 337 34 35 115 114 13 14 91 92 143 148 333 338 143 148 333 338 144 149 334 339 144 149 334 339 145 150 335 340 145 150 335 340 146 151 336 341 146 151 336 341 147 152 337 342 147 152 337 342 33 34 114 113 1 13 92 12 53 143 338 138 53 143 338 138 54 144 339 139 54 144 339 139 55 145 340 140 55 145 340 140 56 146 341 141 56 146 341 141 57 147 342 142 57 147 342 142 5 33 113 32 </DataArray>
<DataArray type="Int32" Name="offsets" format="ascii">
8 16 24 32 40 48 56 64 72 80 88 96 104 112 120 128 136 144 152 160 168 176 184 192 200 208 216 224 232 240 248 256 264 272 280 288 296 304 312 320 328 336 344 352 360 368 376 384 392 400 408 416 424 432 440 448 456 464 472 480 488 496 504 512 520 528 536 544 552 560 568 576 584 592 600 608 616 624 632 640 648 656 664 672 680 688 696 704 712 720 728 736 744 752 760 768 776 784 792 800 808 816 824 832 840 848 856 864 872 880 888 896 904 912 920 928 936 944 952 960 968 976 984 992 1000 1008 1016 1024 1032 1040 1048 1056 1064 1072 1080 1088 1096 1104 1112 1120 1128 1136 1144 1152 1160 1168 1176 1184 1192 1200 1208 1216 1224 1232 1240 1248 1256 1264 1272 1280 1288 1296 1304 1312 1320 1328 1336 1344 1352 1360 1368 1376 1384 1392 1400 1408 1416 1424 1432 1440 1448 1456 1464 1472 1480 1488 1496 1504 1512 1520 1528 1536 1544 1552 1560 1568 1576 1584 1592 1600 1608 1616 1624 1632 1640 1648 1656 1664 1672 1680 1688 1696 1704 1712 1720 1728 </DataArray>
<DataArray type="UInt8" Name="types" format="ascii">
12 12 12 12 12 12 12 12 12 12 12 12 12 12 12 12 12 12 12 12 12 12 12 12 12 12 12 12 12 12 12 12 12 12 12 12 12 12 12 12 12 12 12 12 12 12 12 12 12 12 12 12 12 12 12 12 12 12 12 12 12 12 12 12 12 12 12 12 12 12 12 12 12 12 12 12 12 12 12 12 12 12 12 12 12 12 12 12 12 12 12 12 12 12 12 12 12 12 12 12 12 12 12 12 12 12 12 12 12 12 12 12 12 12 12 12 12 12 12 12 12 12 12 12 12 12 12 12 12 12 12 12 12 12 12 12 12 12 12 12 12 12 12 12 12 12 12 12 12 12 12 12 12 12 12 12 12 12 12 12 12 12 12 12 12 12 12 12 12 12 12 12 12 12 12 12 12 12 12 12 12 12 12 12 12 12 12 12 12 12 12 12 12 12 12 12 12 12 12 12 12 12 12 12 12 12 12 12 12 12 12 12 12 12 12 12 </DataArray>
</Cells>
<CellData Scalars="scalars">
<DataArray type="Float32" Name="number_density" format="ascii">
8.64e+15 6.48e+15 2.16e+15 8.64e+15 1.08e+16 4.32e+15 2.16e+15 2.16e+15 0 0 0 6.48e+15 4.32e+15 2.16e+15 0 0 4.32e+15 4.32e+15 4.32e+15 0 2.16e+15 2.16e+15 6.48e+15 2.16e+15 6.48e+15 0 2.16e+15 4.32e+15 4.32e+15 1.08e+16 1.08e+16 2.16e+15 0 0 6.48e+15 8.64e+15 1.512e+16 1.08e+16 1.512e+16 4.32e+15 8.64e+15 6.48e+15 1.08e+16 8.64e+15 1.944e+16 1.08e+16 2.16e+15 8.64e+15 2.16e+15 2.16e+15 1.296e+16 4.32e+15 1.08e+16 4.32e+15 4.32e+15 4.32e+15 4.32e+15 6.48e+15 8.64e+15 6.48e+15 2.16e+15 0 0 2.16e+15 2.16e+15 6.48e+15 4.32e+15 2.16e+15 0 8.64e+15 2.16e+15 8.64e+15 1.296e+16 8.64e+15 4.32e+15 1.728e+16 6.48e+15 1.296e+16 4.32e+15 1.08e+16 1.512e+16 2.592e+16 1.728e+16 8.64e+15 4.32e+15 8.64e+15 2.16e+15 8.64e+15 2.16e+16 1.296e+16 6.48e+15 8.64e+15 4.32e+15 8.64e+15 6.48e+15 0 8.64e+15 0 4.32e+15 1.296e+16 4.32e+15 8.64e+15 4.32e+15 0 0 0 0 2.16e+15 6.48e+15 1.296e+16 1.944e+16 3.672e+16 3.024e+16 1.512e+16 0 1.512e+16 1.512e+16 2.808e+16 3.888e+16 1.728e+16 0 6.48e+15 1.512e+16 1.08e+16 2.16e+16 2.592e+16 4.32e+15 2.16e+15 1.296e+16 1.512e+16 1.296e+16 1.08e+16 2.16e+15 1.512e+16 4.32e+15 6.48e+15 6.48e+15 1.296e+16 4.32e+15 2.16e+15 0 4.32e+15 2.16e+15 1.296e+16 6.48e+15 1.728e+16 1.512e+16 4.752e+16 6.048e+16 1.08e+16 8.64e+15 6.48e+15 1.944e+16 7.128e+16 7.128e+16 2.808e+16 6.48e+15 1.296e+16 1.08e+16 4.104e+16 4.32e+16 6.48e+15 4.32e+15 1.08e+16 1.296e+16 1.08e+16 1.296e+16 6.48e+15 8.64e+15 1.512e+16 8.64e+15 1.08e+16 2.16e+15 1.08e+16 2.16e+15 6.48e+15 2.16e+15 4.32e+15 2.16e+15 2.16e+15 1.296e+16 8.64e+15 2.592e+16 4.32e+16 2.376e+16 1.944e+16 6.48e+15 1.728e+16 8.64e+15 2.16e+16 3.024e+16 2.376e+16 6.48e+15 1.728e+16 1.08e+16 1.08e+16 2.376e+16 1.512e+16 1.512e+16 4.32e+15 2.16e+15 6.48e+15 8.64e+15 4.32e+15 2.16e+15 8.64e+15 1.296e+16 8.64e+15 4.32e+15 6.48e+15 4.32e+15 6.48e+15 2.16e+15 6.48e+15 2.16e+15 8.64e+15 </DataArray>
<DataArray type="Float32" Name="potential" format="ascii">
0 0 0 0 0 0 0 0 0 0 0 0 0 0 0 0 0 0 0 0 0 0 0 0 0 0 0 0 0 0 0 0 0 0 0 0 0 0 0 0 0 0 0 0 0 0 0 0 0 0 0 0 0 0 0 0 0 0 0 0 0 0 0 0 0 0 0 0 0 0 0 0 0 0 0 0 0 0 0 0 0 0 0 0 0 0 0 0 0 0 0 0 0 0 0 0 0 0 0 0 0 0 0 0 0 0 0 0 0 0 0 0 0 0 0 0 0 0 0 0 0 0 0 0 0 0 0 0 0 0 0 0 0 0 0 0 0 0 0 0 0 0 0 0 0 0 0 0 0 0 0 0 0 0 0 0 0 0 0 0 0 0 0 0 0 0 0 0 0 0 0 0 0 0 0 0 0 0 0 0 0 0 0 0 0 0 0 0 0 0 0 0 0 0 0 0 0 0 0 0 0 0 0 0 0 0 0 0 0 0 0 0 0 0 0 0 </DataArray>
<DataArray type="Float32" Name="temperature" format="ascii">
294.701 335.225 9.4962e-14 190.329 520.041 117.634 1e-15 1e-15 0 0 0 207.437 194.282 1e-15 0 0 152.544 121.611 95.3736 0 1e-15 2.39599e-14 50.2041 6.48997e-15 125.861 0 1e-15 113.561 32.013 241.31 121.978 4.72531e-14 0 0 330.416 49.2807 170.615 221.774 428.03 65.6114 361.168 282.925 230.925 1087.06 297.922 533.24 1e-15 142.379 1e-15 3.73358e-13 516.207 286.251 280.14 79.7325 33.77 139.27 145.939 454.84 185.837 112.405 1e-15 0 0 1e-15 1e-15 29.5162 34.5423 9.38395e-14 0 285.456 2.39599e-14 130.791 503.264 521.687 739.182 786.342 104.318 292.575 60.0591 685.366 484.533 542.807 615.848 196.904 383.71 588.599 7.46049e-13 929.055 422.412 369.11 202.206 260.411 158.064 709.218 1105 0 234.844 0 135.379 467.49 307.591 272.702 81.9042 0 0 0 0 9.38395e-14 450.66 806.502 1279.46 1402.9 641.196 653.881 0 917.389 891.148 2496.95 1766.15 663.667 0 214.888 370.735 1645.36 1358.07 793.307 208.962 3.73358e-13 426.159 1091.39 1185.34 281.218 1e-15 257.269 1211.33 189.314 876.108 481.666 359.287 2.79852e-13 0 316.013 1e-15 205.682 205.503 381.585 658.484 1717.76 2643.61 466.245 119.239 440.583 1961.85 2738.32 1956.31 458.297 131.564 713.386 989.157 2390.07 2310.66 806.95 810.863 330.042 615.159 518.727 1085.74 176.482 457.748 448.94 547.493 398.877 1e-15 199.473 1e-15 177.377 1e-15 220.669 1e-15 4.70081e-15 300.464 288.892 1515.1 3529.19 2046.14 336.693 292.669 494.521 579.873 881.403 2465.18 1053.24 124.741 1083.81 636.134 1055.89 445.772 160.434 249.559 190.061 1.87012e-13 291.073 897.971 38.9885 1e-15 258.912 371.133 143.855 44.8443 332.298 32.8874 316.366 1e-15 207.557 1e-15 206.316 </DataArray>
<DataArray type="Float32" Name="velocity" format="ascii">
426.871 555.798 718.584 533.742 436.149 176.45 954.176 599.645 0 0 0 386.708 994.192 1156.12 0 0 873.007 579.443 682.695 0 1849.65 1611.68 1167.29 813.318 597.647 0 1221.92 886.563 733.719 666.406 183.38 740.399 0 0 377.924 497.624 546.335 598.754 874.66 884.93 1262.9 566.882 1028.2 1271.42 1795.81 1570.93 1170.6 865.011 866.528 1904.52 2136.31 1871.88 1516 1392.4 988.618 1376.67 2374.19 2235.89 1288.37 1005.6 948.215 0 0 1482.88 714.792 875.296 554.068 831.158 0 1081.97 920.068 565.355 876.816 827.188 1540.27 1109.9 274.156 302.936 1078.22 1763.35 2393.71 2325.03 1449.81 835.792 1630.28 2320.58 3166.46 2962.01 1923.88 1517.52 1509.69 2387.92 2595.48 2558.81 1893.07 0 1158.69 0 2020.07 2013.82 1298.85 740.687 846.305 0 0 0 0 716.197 733.26 1358.98 1864.65 1358.94 834.341 395.5 0 2271.12 2912.71 2698.38 2056.7 895.429 0 2683.06 3187.43 3353.27 2516.38 1376.95 1628.76 2340.7 2634.58 2860.25 1620.27 1239.04 1022.5 1576.01 1902.46 1673.1 1435.99 736.102 682.423 1372.58 0 1257.95 1105.45 592.035 358.498 801.033 1123.53 1412.47 1912.85 272.347 607.283 1457.5 1963.96 1939.94 1689.72 584.488 1238.78 1747.78 1718.68 2053.34 1949.66 980.294 866.642 1490.37 1756.2 1895.73 1130.38 980.876 817.73 1138.23 1307.78 1213.91 1172.98 608.206 427.96 562.118 983.994 799.889 830.591 178.279 279.209 435.668 546.525 1381.04 2215.75 251.12 470.203 591.426 1216.57 810.93 1528.19 535.503 555.404 942.085 1105.63 1342.99 631.656 549.555 469.559 1050.24 1300.19 1040.39 715.781 723.25 628.388 595.217 886.397 1038.58 848.435 408.857 175.31 145.954 543.498 639.304 723.897 293.359 </DataArray>
<DataArray type="Float32" Name="E_field" format="ascii">
0 0 0 0 0 0 0 0 0 0 0 0 0 0 0 0 0 0 0 0 0 0 0 0 0 0 0 0 0 0 0 0 0 0 0 0 0 0 0 0 0 0 0 0 0 0 0 0 0 0 0 0 0 0 0 0 0 0 0 0 0 0 0 0 0 0 0 0 0 0 0 0 0 0 0 0 0 0 0 0 0 0 0 0 0 0 0 0 0 0 0 0 0 0 0 0 0 0 0 0 0 0 0 0 0 0 0 0 0 0 0 0 0 0 0 0 0 0 0 0 0 0 0 0 0 0 0 0 0 0 0 0 0 0 0 0 0 0 0 0 0 0 0 0 0 0 0 0 0 0 0 0 0 0 0 0 0 0 0 0 0 0 0 0 0 0 0 0 0 0 0 0 0 0 0 0 0 0 0 0 0 0 0 0 0 0 0 0 0 0 0 0 0 0 0 0 0 0 0 0 0 0 0 0 0 0 0 0 0 0 0 0 0 0 0 0 </DataArray>
</CellData>
<PointData Scalars="number_density">
<DataArray type="Float32" Name="number_density" format="ascii">
1.08e+16 4.32e+15 1.296e+16 8.64e+15 8.64e+15 8.64e+15 1.944e+16 4.32e+15 7.56e+15 4.32e+15 4.32e+15 3.24e+15 3.24e+15 3.24e+15 8.64e+15 1.08e+16 6.48e+15 9.72e+15 9.72e+15 6.48e+15 9.72e+15 1.404e+16 1.188e+16 5.4e+15 3.24e+15 4.32e+15 5.4e+15 8.64e+15 8.64e+15 5.4e+15 7.56e+15 7.56e+15 5.4e+15 7.56e+15 5.4e+15 9.72e+15 1.944e+16 2.16e+16 1.512e+16 1.296e+16 1.404e+16 9.72e+15 5.4e+15 5.4e+15 5.4e+15 3.24e+15 6.48e+15 9.72e+15 6.48e+15 1.08e+15 0 3.24e+15 7.56e+15 5.4e+15 4.32e+15 4.32e+15 4.32e+15 5.4e+15 1.08e+16 1.728e+16 3.456e+16 3.348e+16 2.16e+16 7.56e+15 4.32e+15 5.4e+15 9.72e+15 7.56e+15 9.18e+15 4.86e+15 3.78e+15 4.32e+15 5.94e+15 1.08e+16 5.4e+15 4.32e+15 5.4e+15 4.86e+15 5.94e+15 2.16e+15 3.78e+15 5.4e+15 4.86e+15 5.4e+15 3.78e+15 3.78e+15 4.86e+15 4.32e+15 8.64e+15 7.02e+15 8.1e+15 7.56e+15 4.32e+15 8.64e+15 6.48e+15 4.32e+15 5.94e+15 6.48e+15 6.48e+15 5.4e+15 5.94e+15 8.64e+15 9.18e+15 9.18e+15 8.1e+15 1.242e+16 1.62e+16 1.35e+16 9.72e+15 1.026e+16 1.242e+16 1.944e+16 1.782e+16 7.02e+15 7.02e+15 8.1e+15 1.836e+16 2.052e+16 4.86e+15 1.08e+15 2.16e+15 4.32e+15 6.48e+15 2.7e+15 5.4e+14 2.16e+15 2.7e+15 3.24e+15 2.7e+15 5.4e+14 1.08e+15 1.62e+15 4.32e+15 3.78e+15 2.7e+15 2.7e+15 3.24e+15 4.86e+15 4.86e+15 4.32e+15 3.78e+15 3.78e+15 3.78e+15 5.4e+15 7.56e+15 7.56e+15 5.4e+15 5.4e+15 7.56e+15 7.02e+15 7.56e+15 7.02e+15 5.94e+15 1.08e+16 8.64e+15 7.56e+15 1.242e+16 1.296e+16 1.188e+16 1.35e+16 1.296e+16 2.16e+16 2.322e+16 1.134e+16 1.512e+16 2.484e+16 2.97e+16 2.43e+16 1.134e+16 1.674e+16 3.294e+16 4.374e+16 2.862e+16 1.08e+16 1.62e+16 2.97e+16 4.374e+16 2.916e+16 1.026e+16 1.134e+16 1.944e+16 2.268e+16 1.62e+16 1.188e+16 9.72e+15 1.026e+16 9.18e+15 8.64e+15 1.026e+16 8.64e+15 7.56e+15 8.1e+15 7.56e+15 4.86e+15 2.7e+15 2.7e+15 4.86e+15 5.4e+15 2.7e+15 1.08e+15 0 1.08e+15 3.78e+15 2.7e+15 1.08e+15 1.08e+15 3.24e+15 4.32e+15 2.7e+15 1.08e+15 2.7e+15 4.32e+15 5.94e+15 4.86e+15 1.08e+15 1.62e+15 3.78e+15 7.56e+15 8.1e+15 8.1e+15 7.56e+15 5.67e+15 5.94e+15 4.32e+15 5.94e+15 5.94e+15 4.05e+15 5.13e+15 2.97e+15 3.51e+15 4.05e+15 5.4e+15 5.94e+15 2.7e+15 1.62e+15 2.97e+15 4.59e+15 5.94e+15 3.51e+15 8.1e+14 2.16e+15 3.78e+15 6.21e+15 1.026e+16 1.161e+16 1.404e+16 1.161e+16 8.91e+15 6.48e+15 9.99e+15 1.242e+16 1.269e+16 1.08e+16 5.13e+15 5.94e+15 6.48e+15 9.45e+15 8.91e+15 4.32e+15 3.24e+15 5.4e+15 6.48e+15 5.4e+15 2.7e+15 8.1e+14 3.51e+15 4.05e+15 4.32e+15 8.91e+15 1.269e+16 2.025e+16 2.511e+16 1.836e+16 6.21e+15 1.107e+16 1.512e+16 2.16e+16 2.052e+16 5.13e+15 7.56e+15 9.72e+15 1.323e+16 1.404e+16 5.94e+15 6.48e+15 8.64e+15 9.18e+15 7.83e+15 4.59e+15 3.24e+15 4.05e+15 4.59e+15 6.21e+15 9.18e+15 1.512e+16 3.159e+16 4.806e+16 3.402e+16 7.02e+15 1.269e+16 2.646e+16 4.077e+16 3.159e+16 5.94e+15 1.053e+16 1.62e+16 2.106e+16 1.755e+16 7.83e+15 1.026e+16 1.026e+16 9.72e+15 9.45e+15 7.02e+15 6.75e+15 5.13e+15 4.86e+15 6.48e+15 1.053e+16 1.485e+16 3.159e+16 4.617e+16 3.348e+16 1.026e+16 1.296e+16 2.43e+16 3.915e+16 3.024e+16 9.72e+15 1.026e+16 1.323e+16 1.971e+16 1.512e+16 8.64e+15 9.45e+15 9.18e+15 8.1e+15 7.02e+15 6.75e+15 7.83e+15 7.02e+15 5.13e+15 4.86e+15 </DataArray>
<DataArray type="Float32" Name="potential" format="ascii">
0 0 0 0 0 0 0 0 0 0 0 0 0 0 0 0 0 0 0 0 0 0 0 0 0 0 0 0 0 0 0 0 0 0 0 0 0 0 0 0 0 0 0 0 0 0 0 0 0 0 0 0 0 0 0 0 0 0 0 0 0 0 0 0 0 0 0 0 0 0 0 0 0 0 0 0 0 0 0 0 0 0 0 0 0 0 0 0 0 0 0 0 0 0 0 0 0 0 0 0 0 0 0 0 0 0 0 0 0 0 0 0 0 0 0 0 0 0 0 0 0 0 0 0 0 0 0 0 0 0 0 0 0 0 0 0 0 0 0 0 0 0 0 0 0 0 0 0 0 0 0 0 0 0 0 0 0 0 0 0 0 0 0 0 0 0 0 0 0 0 0 0 0 0 0 0 0 0 0 0 0 0 0 0 0 0 0 0 0 0 0 0 0 0 0 0 0 0 0 0 0 0 0 0 0 0 0 0 0 0 0 0 0 0 0 0 0 0 0 0 0 0 0 0 0 0 0 0 0 0 0 0 0 0 0 0 0 0 0 0 0 0 0 0 0 0 0 0 0 0 0 0 0 0 0 0 0 0 0 0 0 0 0 0 0 0 0 0 0 0 0 0 0 0 0 0 0 0 0 0 0 0 0 0 0 0 0 0 0 0 0 0 0 0 0 0 0 0 0 0 0 0 0 0 0 0 0 0 0 0 0 0 0 0 0 0 0 0 0 0 0 0 0 0 0 0 0 0 0 0 0 0 0 0 0 0 0 0 0 0 0 0 0 </DataArray>
<DataArray type="Float32" Name="temperature" format="ascii">