<VTKFile type="UnstructuredGrid" version="0.1" byte_order="LittleEndian">
<UnstructuredGrid>
<Piece NumberOfPoints="343" NumberOfCells="216">
<Points>
<DataArray type="Float32" NumberOfComponents="3" format="ascii">
-0.05 -0.05 -0.05 0.05 -0.05 -0.05 0.05 0.05 -0.05 -0.05 0.05 -0.05 -0.05 -0.05 0.05 0.05 -0.05 0.05 0.05 0.05 0.05 -0.05 0.05 0.05 -0.0333333 -0.05 -0.05 -0.0166667 -0.05 -0.05 0 -0.05 -0.05 0.0166667 -0.05 -0.05 0.0333333 -0.05 -0.05 0.05 -0.0333333 -0.05 0.05 -0.0166667 -0.05 0.05 0 -0.05 0.05 0.0166667 -0.05 0.05 0.0333333 -0.05 0.0333333 0.05 -0.05 0.0166667 0.05 -0.05 0 0.05 -0.05 -0.0166667 0.05 -0.05 -0.0333333 0.05 -0.05 -0.05 0.0333333 -0.05 -0.05 0.0166667 -0.05 -0.05 0 -0.05 -0.05 -0.0166667 -0.05 -0.05 -0.0333333 -0.05 -0.0333333 -0.05 0.05 -0.0166667 -0.05 0.05 0 -0.05 0.05 0.0166667 -0.05 0.05 0.0333333 -0.05 0.05 0.05 -0.0333333 0.05 0.05 -0.0166667 0.05 0.05 0 0.05 0.05 0.0166667 0.05 0.05 0.0333333 0.05 0.0333333 0.05 0.05 0.0166667 0.05 0.05 0 0.05 0.05 -0.0166667 0.05 0.05 -0.0333333 0.05 0.05 -0.05 0.0333333 0.05 -0.05 0.0166667 0.05 -0.05 0 0.05 -0.05 -0.0166667 0.05 -0.05 -0.0333333 0.05 -0.05 -0.05 -0.0333333 -0.05 -0.05 -0.0166667 -0.05 -0.05 0 -0.05 -0.05 0.0166667 -0.05 -0.05 0.0333333 0.05 -0.05 -0.0333333 0.05 -0.05 -0.0166667 0.05 -0.05 0 0.05 -0.05 0.0166667 0.05 -0.05 0.0333333 0.05 0.05 -0.0333333 0.05 0.05 -0.0166667 0.05 0.05 0 0.05 0.05 0.0166667 0.05 0.05 0.0333333 -0.05 0.05 -0.0333333 -0.05 0.05 -0.0166667 -0.05 0.05 0 -0.05 0.05 0.0166667 -0.05 0.05 0.0333333 -0.0333333 0.0333333 -0.05 -0.0333333 0.0166667 -0.05 -0.0333333 -3.55271e-18 -0.05 -0.0333333 -0.0166667 -0.05 -0.0333333 -0.0333333 -0.05 -0.0166667 0.0333333 -0.05 -0.0166667 0.0166667 -0.05 -0.0166667 -7.10543e-18 -0.05 -0.0166667 -0.0166667 -0.05 -0.0166667 -0.0333333 -0.05 1.77636e-18 0.0333333 -0.05 5.32907e-18 0.0166667 -0.05 3.55271e-18 -1.77636e-18 -0.05 7.10543e-18 -0.0166667 -0.05 3.55271e-18 -0.0333333 -0.05 0.0166667 0.0333333 -0.05 0.0166667 0.0166667 -0.05 0.0166667 -7.10543e-18 -0.05 0.0166667 -0.0166667 -0.05 0.0166667 -0.0333333 -0.05 0.0333333 0.0333333 -0.05 0.0333333 0.0166667 -0.05 0.0333333 -1.77636e-18 -0.05 0.0333333 -0.0166667 -0.05 0.0333333 -0.0333333 -0.05 -0.0333333 -0.0333333 0.05 -0.0333333 -0.0166667 0.05 -0.0333333 0 0.05 -0.0333333 0.0166667 0.05 -0.0333333 0.0333333 0.05 -0.0166667 -0.0333333 0.05 -0.0166667 -0.0166667 0.05 -0.0166667 0 0.05 -0.0166667 0.0166667 0.05 -0.0166667 0.0333333 0.05 0 -0.0333333 0.05 0 -0.0166667 0.05 0 0 0.05 0 0.0166667 0.05 0 0.0333333 0.05 0.0166667 -0.0333333 0.05 0.0166667 -0.0166667 0.05 0.0166667 0 0.05 0.0166667 0.0166667 0.05 0.0166667 0.0333333 0.05 0.0333333 -0.0333333 0.05 0.0333333 -0.0166667 0.05 0.0333333 1.77636e-18 0.05 0.0333333 0.0166667 0.05 0.0333333 0.0333333 0.05 -0.0333333 -0.05 -0.0333333 -0.0333333 -0.05 -0.0166667 -0.0333333 -0.05 0 -0.0333333 -0.05 0.0166667 -0.0333333 -0.05 0.0333333 -0.0166667 -0.05 -0.0333333 -0.0166667 -0.05 -0.0166667 -0.0166667 -0.05 0 -0.0166667 -0.05 0.0166667 -0.0166667 -0.05 0.0333333 0 -0.05 -0.0333333 0 -0.05 -0.0166667 0 -0.05 0 0 -0.05 0.0166667 0 -0.05 0.0333333 0.0166667 -0.05 -0.0333333 0.0166667 -0.05 -0.0166667 0.0166667 -0.05 0 0.0166667 -0.05 0.0166667 0.0166667 -0.05 0.0333333 0.0333333 -0.05 -0.0333333 0.0333333 -0.05 -0.0166667 0.0333333 -0.05 1.77636e-18 0.0333333 -0.05 0.0166667 0.0333333 -0.05 0.0333333 0.05 -0.0333333 -0.0333333 0.05 -0.0333333 -0.0166667 0.05 -0.0333333 0 0.05 -0.0333333 0.0166667 0.05 -0.0333333 0.0333333 0.05 -0.0166667 -0.0333333 0.05 -0.0166667 -0.0166667 0.05 -0.0166667 0 0.05 -0.0166667 0.0166667 0.05 -0.0166667 0.0333333 0.05 0 -0.0333333 0.05 0 -0.0166667 0.05 0 0 0.05 0 0.0166667 0.05 0 0.0333333 0.05 0.0166667 -0.0333333 0.05 0.0166667 -0.0166667 0.05 0.0166667 0 0.05 0.0166667 0.0166667 0.05 0.0166667 0.0333333 0.05 0.0333333 -0.0333333 0.05 0.0333333 -0.0166667 0.05 0.0333333 1.77636e-18 0.05 0.0333333 0.0166667 0.05 0.0333333 0.0333333 0.0333333 0.05 -0.0333333 0.0333333 0.05 -0.0166667 0.0333333 0.05 0 0.0333333 0.05 0.0166667 0.0333333 0.05 0.0333333 0.0166667 0.05 -0.0333333 0.0166667 0.05 -0.0166667 0.0166667 0.05 0 0.0166667 0.05 0.0166667 0.0166667 0.05 0.0333333 0 0.05 -0.0333333 0 0.05 -0.0166667 0 0.05 0 0 0.05 0.0166667 0 0.05 0.0333333 -0.0166667 0.05 -0.0333333 -0.0166667 0.05 -0.0166667 -0.0166667 0.05 0 -0.0166667 0.05 0.0166667 -0.0166667 0.05 0.0333333 -0.0333333 0.05 -0.0333333 -0.0333333 0.05 -0.0166667 -0.0333333 0.05 1.77636e-18 -0.0333333 0.05 0.0166667 -0.0333333 0.05 0.0333333 -0.05 0.0333333 -0.0333333 -0.05 0.0333333 -0.0166667 -0.05 0.0333333 0 -0.05 0.0333333 0.0166667 -0.05 0.0333333 0.0333333 -0.05 0.0166667 -0.0333333 -0.05 0.0166667 -0.0166667 -0.05 0.0166667 0 -0.05 0.0166667 0.0166667 -0.05 0.0166667 0.0333333 -0.05 0 -0.0333333 -0.05 0 -0.0166667 -0.05 0 0 -0.05 0 0.0166667 -0.05 0 0.0333333 -0.05 -0.0166667 -0.0333333 -0.05 -0.0166667 -0.0166667 -0.05 -0.0166667 0 -0.05 -0.0166667 0.0166667 -0.05 -0.0166667 0.0333333 -0.05 -0.0333333 -0.0333333 -0.05 -0.0333333 -0.0166667 -0.05 -0.0333333 1.77636e-18 -0.05 -0.0333333 0.0166667 -0.05 -0.0333333 0.0333333 -0.0333333 0.0333333 -0.0333333 -0.0333333 0.0333333 -0.0166667 -0.0333333 0.0333333 4.44089e-19 -0.0333333 0.0333333 0.0166667 -0.0333333 0.0333333 0.0333333 -0.0333333 0.0166667 -0.0333333 -0.0333333 0.0166667 -0.0166667 -0.0333333 0.0166667 -4.44089e-18 -0.0333333 0.0166667 0.0166667 -0.0333333 0.0166667 0.0333333 -0.0333333 -6.66134e-18 -0.0333333 -0.0333333 -9.76996e-18 -0.0166667 -0.0333333 -1.77636e-18 -1.77636e-18 -0.0333333 -1.77636e-18 0.0166667 -0.0333333 3.55271e-18 0.0333333 -0.0333333 -0.0166667 -0.0333333 -0.0333333 -0.0166667 -0.0166667 -0.0333333 -0.0166667 1.77636e-18 -0.0333333 -0.0166667 0.0166667 -0.0333333 -0.0166667 0.0333333 -0.0333333 -0.0333333 -0.0333333 -0.0333333 -0.0333333 -0.0166667 -0.0333333 -0.0333333 0 -0.0333333 -0.0333333 0.0166667 -0.0333333 -0.0333333 0.0333333 -0.0166667 0.0333333 -0.0333333 -0.0166667 0.0333333 -0.0166667 -0.0166667 0.0333333 2.66454e-18 -0.0166667 0.0333333 0.0166667 -0.0166667 0.0333333 0.0333333 -0.0166667 0.0166667 -0.0333333 -0.0166667 0.0166667 -0.0166667 -0.0166667 0.0166667 -1.77636e-18 -0.0166667 0.0166667 0.0166667 -0.0166667 0.0166667 0.0333333 -0.0166667 -1.06581e-17 -0.0333333 -0.0166667 -1.15463e-17 -0.0166667 -0.0166667 -3.55271e-18 0 -0.0166667 -8.88178e-18 0.0166667 -0.0166667 -1.77636e-18 0.0333333 -0.0166667 -0.0166667 -0.0333333 -0.0166667 -0.0166667 -0.0166667 -0.0166667 -0.0166667 3.55271e-18 -0.0166667 -0.0166667 0.0166667 -0.0166667 -0.0166667 0.0333333 -0.0166667 -0.0333333 -0.0333333 -0.0166667 -0.0333333 -0.0166667 -0.0166667 -0.0333333 0 -0.0166667 -0.0333333 0.0166667 -0.0166667 -0.0333333 0.0333333 3.44169e-18 0.0333333 -0.0333333 1.02141e-17 0.0333333 -0.0166667 2.66454e-18 0.0333333 -8.88178e-19 6.21725e-18 0.0333333 0.0166667 1.33227e-18 0.0333333 0.0333333 7.99361e-18 0.0166667 -0.0333333 8.43769e-18 0.0166667 -0.0166667 8.88178e-19 0.0166667 8.88178e-19 7.99361e-18 0.0166667 0.0166667 3.55271e-18 0.0166667 0.0333333 3.55271e-18 -1.77636e-18 -0.0333333 9.76996e-18 -9.76996e-18 -0.0166667 0 -8.88178e-19 -8.88178e-19 8.88178e-18 -8.88178e-18 0.0166667 1.77636e-18 -1.77636e-18 0.0333333 1.02141e-17 -0.0166667 -0.0333333 1.24345e-17 -0.0166667 -0.0166667 3.55271e-18 -0.0166667 -1.77636e-18 8.88178e-18 -0.0166667 0.0166667 3.55271e-18 -0.0166667 0.0333333 5.77316e-18 -0.0333333 -0.0333333 4.44089e-18 -0.0333333 -0.0166667 1.77636e-18 -0.0333333 1.77636e-18 5.32907e-18 -0.0333333 0.0166667 0 -0.0333333 0.0333333 0.0166667 0.0333333 -0.0333333 0.0166667 0.0333333 -0.0166667 0.0166667 0.0333333 -2.66454e-18 0.0166667 0.0333333 0.0166667 0.0166667 0.0333333 0.0333333 0.0166667 0.0166667 -0.0333333 0.0166667 0.0166667 -0.0166667 0.0166667 0.0166667 3.10862e-18 0.0166667 0.0166667 0.0166667 0.0166667 0.0166667 0.0333333 0.0166667 -1.24345e-17 -0.0333333 0.0166667 -1.37668e-17 -0.0166667 0.0166667 -3.55271e-18 -1.77636e-18 0.0166667 -6.21725e-18 0.0166667 0.0166667 -8.88178e-19 0.0333333 0.0166667 -0.0166667 -0.0333333 0.0166667 -0.0166667 -0.0166667 0.0166667 -0.0166667 2.66454e-18 0.0166667 -0.0166667 0.0166667 0.0166667 -0.0166667 0.0333333 0.0166667 -0.0333333 -0.0333333 0.0166667 -0.0333333 -0.0166667 0.0166667 -0.0333333 0 0.0166667 -0.0333333 0.0166667 0.0166667 -0.0333333 0.0333333 0.0333333 0.0333333 -0.0333333 0.0333333 0.0333333 -0.0166667 0.0333333 0.0333333 3.33067e-19 0.0333333 0.0333333 0.0166667 0.0333333 0.0333333 0.0333333 0.0333333 0.0166667 -0.0333333 0.0333333 0.0166667 -0.0166667 0.0333333 0.0166667 1.11022e-18 0.0333333 0.0166667 0.0166667 0.0333333 0.0166667 0.0333333 0.0333333 -4.44089e-18 -0.0333333 0.0333333 -4.21885e-18 -0.0166667 0.0333333 8.88178e-19 8.88178e-19 0.0333333 -1.33227e-18 0.0166667 0.0333333 3.55271e-18 0.0333333 0.0333333 -0.0166667 -0.0333333 0.0333333 -0.0166667 -0.0166667 0.0333333 -0.0166667 2.22045e-18 0.0333333 -0.0166667 0.0166667 0.0333333 -0.0166667 0.0333333 0.0333333 -0.0333333 -0.0333333 0.0333333 -0.0333333 -0.0166667 0.0333333 -0.0333333 2.22045e-18 0.0333333 -0.0333333 0.0166667 0.0333333 -0.0333333 0.0333333 </DataArray>
</Points>
<Cells>
<DataArray type="Int32" Name="connectivity" format="ascii">
68 22 3 23 218 188 63 193 218 188 63 193 219 189 64 194 219 189 64 194 220 190 65 195 220 190 65 195 221 191 66 196 221 191 66 196 222 192 67 197 222 192 67 197 97 42 7 43 69 68 23 24 223 218 193 198 223 218 193 198 224 219 194 199 224 219 194 199 225 220 195 200 225 220 195 200 226 221 196 201 226 221 196 201 227 222 197 202 227 222 197 202 96 97 43 44 70 69 24 25 228 223 198 203 228 223 198 203 229 224 199 204 229 224 199 204 230 225 200 205 230 225 200 205 231 226 201 206 231 226 201 206 232 227 202 207 232 227 202 207 95 96 44 45 71 70 25 26 233 228 203 208 233 228 203 208 234 229 204 209 234 229 204 209 235 230 205 210 235 230 205 210 236 231 206 211 236 231 206 211 237 232 207 212 237 232 207 212 94 95 45 46 72 71 26 27 238 233 208 213 238 233 208 213 239 234 209 214 239 234 209 214 240 235 210 215 240 235 210 215 241 236 211 216 241 236 211 216 242 237 212 217 242 237 212 217 93 94 46 47 8 72 27 0 118 238 213 48 118 238 213 48 119 239 214 49 119 239 214 49 120 240 215 50 120 240 215 50 121 241 216 51 121 241 216 51 122 242 217 52 122 242 217 52 28 93 47 4 73 21 22 68 243 183 188 218 243 183 188 218 244 184 189 219 244 184 189 219 245 185 190 220 245 185 190 220 246 186 191 221 246 186 191 221 247 187 192 222 247 187 192 222 102 41 42 97 74 73 68 69 248 243 218 223 248 243 218 223 249 244 219 224 249 244 219 224 250 245 220 225 250 245 220 225 251 246 221 226 251 246 221 226 252 247 222 227 252 247 222 227 101 102 97 96 75 74 69 70 253 248 223 228 253 248 223 228 254 249 224 229 254 249 224 229 255 250 225 230 255 250 225 230 256 251 226 231 256 251 226 231 257 252 227 232 257 252 227 232 100 101 96 95 76 75 70 71 258 253 228 233 258 253 228 233 259 254 229 234 259 254 229 234 260 255 230 235 260 255 230 235 261 256 231 236 261 256 231 236 262 257 232 237 262 257 232 237 99 100 95 94 77 76 71 72 263 258 233 238 263 258 233 238 264 259 234 239 264 259 234 239 265 260 235 240 265 260 235 240 266 261 236 241 266 261 236 241 267 262 237 242 267 262 237 242 98 99 94 93 9 77 72 8 123 263 238 118 123 263 238 118 124 264 239 119 124 264 239 119 125 265 240 120 125 265 240 120 126 266 241 121 126 266 241 121 127 267 242 122 127 267 242 122 29 98 93 28 78 20 21 73 268 178 183 243 268 178 183 243 269 179 184 244 269 179 184 244 270 180 185 245 270 180 185 245 271 181 186 246 271 181 186 246 272 182 187 247 272 182 187 247 107 40 41 102 79 78 73 74 273 268 243 248 273 268 243 248 274 269 244 249 274 269 244 249 275 270 245 250 275 270 245 250 276 271 246 251 276 271 246 251 277 272 247 252 277 272 247 252 106 107 102 101 80 79 74 75 278 273 248 253 278 273 248 253 279 274 249 254 279 274 249 254 280 275 250 255 280 275 250 255 281 276 251 256 281 276 251 256 282 277 252 257 282 277 252 257 105 106 101 100 81 80 75 76 283 278 253 258 283 278 253 258 284 279 254 259 284 279 254 259 285 280 255 260 285 280 255 260 286 281 256 261 286 281 256 261 287 282 257 262 287 282 257 262 104 105 100 99 82 81 76 77 288 283 258 263 288 283 258 263 289 284 259 264 289 284 259 264 290 285 260 265 290 285 260 265 291 286 261 266 291 286 261 266 292 287 262 267 292 287 262 267 103 104 99 98 10 82 77 9 128 288 263 123 128 288 263 123 129 289 264 124 129 289 264 124 130 290 265 125 130 290 265 125 131 291 266 126 131 291 266 126 132 292 267 127 132 292 267 127 30 103 98 29 83 19 20 78 293 173 178 268 293 173 178 268 294 174 179 269 294 174 179 269 295 175 180 270 295 175 180 270 296 176 181 271 296 176 181 271 297 177 182 272 297 177 182 272 112 39 40 107 84 83 78 79 298 293 268 273 298 293 268 273 299 294 269 274 299 294 269 274 300 295 270 275 300 295 270 275 301 296 271 276 301 296 271 276 302 297 272 277 302 297 272 277 111 112 107 106 85 84 79 80 303 298 273 278 303 298 273 278 304 299 274 279 304 299 274 279 305 300 275 280 305 300 275 280 306 301 276 281 306 301 276 281 307 302 277 282 307 302 277 282 110 111 106 105 86 85 80 81 308 303 278 283 308 303 278 283 309 304 279 284 309 304 279 284 310 305 280 285 310 305 280 285 311 306 281 286 311 306 281 286 312 307 282 287 312 307 282 287 109 110 105 104 87 86 81 82 313 308 283 288 313 308 283 288 314 309 284 289 314 309 284 289 315 310 285 290 315 310 285 290 316 311 286 291 316 311 286 291 317 312 287 292 317 312 287 292 108 109 104 103 11 87 82 10 133 313 288 128 133 313 288 128 134 314 289 129 134 314 289 129 135 315 290 130 135 315 290 130 136 316 291 131 136 316 291 131 137 317 292 132 137 317 292 132 31 108 103 30 88 18 19 83 318 168 173 293 318 168 173 293 319 169 174 294 319 169 174 294 320 170 175 295 320 170 175 295 321 171 176 296 321 171 176 296 322 172 177 297 322 172 177 297 117 38 39 112 89 88 83 84 323 318 293 298 323 318 293 298 324 319 294 299 324 319 294 299 325 320 295 300 325 320 295 300 326 321 296 301 326 321 296 301 327 322 297 302 327 322 297 302 116 117 112 111 90 89 84 85 328 323 298 303 328 323 298 303 329 324 299 304 329 324 299 304 330 325 300 305 330 325 300 305 331 326 301 306 331 326 301 306 332 327 302 307 332 327 302 307 115 116 111 110 91 90 85 86 333 328 303 308 333 328 303 308 334 329 304 309 334 329 304 309 335 330 305 310 335 330 305 310 336 331 306 311 336 331 306 311 337 332 307 312 337 332 307 312 114 115 110 109 92 91 86 87 338 333 308 313 338 333 308 313 339 334 309 314 339 334 309 314 340 335 310 315 340 335 310 315 341 336 311 316 341 336 311 316 342 337 312 317 342 337 312 317 113 114 109 108 12 92 87 11 138 338 313 133 138 338 313 133 139 339 314 134 139 339 314 134 140 340 315 135 140 340 315 135 141 341 316 136 141 341 316 136 142 342 317 137 142 342 317 137 32 113 108 31 17 2 18 88 163 58 168 318 163 58 168 318 164 59 169 319 164 59 169 319 165 60 170 320 165 60 170 320 166 61 171 321 166 61 171 321 167 62 172 322 167 62 172 322 37 6 38 117 16 17 88 89 158 163 318 323 158 163 318 323 159 164 319 324 159 164 319 324 160 165 320 325 160 165 320 325 161 166 321 326 161 166 321 326 162 167 322 327 162 167 322 327 36 37 117 116 15 16 89 90 153 158 323 328 153 158 323 328 154 159 324 329 154 159 324 329 155 160 325 330 155 160 325 330 156 161 326 331 156 161 326 331 157 162 327 332 157 162 327 332 35 36 116 115 14 15 90 91 148 153 328 333 148 153 328 333 149 154 329 334 149 154 329 334 150 155 330 335 150 155 330 335 151 156 331 336 151 156 331 336 152 157 332 337 152 157 332 337 34 35 115 114 13 14 91 92 143 148 333 338 143 148 333 338 144 149 334 339 144 149 334 339 145 150 335 340 145 150 335 340 146 151 336 341 146 151 336 341 147 152 337 342 147 152 337 342 33 34 114 113 1 13 92 12 53 143 338 138 53 143 338 138 54 144 339 139 54 144 339 139 55 145 340 140 55 145 340 140 56 146 341 141 56 146 341 141 57 147 342 142 57 147 342 142 5 33 113 32 </DataArray>
<DataArray type="Int32" Name="offsets" format="ascii">
8 16 24 32 40 48 56 64 72 80 88 96 104 112 120 128 136 144 152 160 168 176 184 192 200 208 216 224 232 240 248 256 264 272 280 288 296 304 312 320 328 336 344 352 360 368 376 384 392 400 408 416 424 432 440 448 456 464 472 480 488 496 504 512 520 528 536 544 552 560 568 576 584 592 600 608 616 624 632 640 648 656 664 672 680 688 696 704 712 720 728 736 744 752 760 768 776 784 792 800 808 816 824 832 840 848 856 864 872 880 888 896 904 912 920 928 936 944 952 960 968 976 984 992 1000 1008 1016 1024 1032 1040 1048 1056 1064 1072 1080 1088 1096 1104 1112 1120 1128 1136 1144 1152 1160 1168 1176 1184 1192 1200 1208 1216 1224 1232 1240 1248 1256 1264 1272 1280 1288 1296 1304 1312 1320 1328 1336 1344 1352 1360 1368 1376 1384 1392 1400 1408 1416 1424 1432 1440 1448 1456 1464 1472 1480 1488 1496 1504 1512 1520 1528 1536 1544 1552 1560 1568 1576 1584 1592 1600 1608 1616 1624 1632 1640 1648 1656 1664 1672 1680 1688 1696 1704 1712 1720 1728 </DataArray>
<DataArray type="UInt8" Name="types" format="ascii">
12 12 12 12 12 12 12 12 12 12 12 12 12 12 12 12 12 12 12 12 12 12 12 12 12 12 12 12 12 12 12 12 12 12 12 12 12 12 12 12 12 12 12 12 12 12 12 12 12 12 12 12 12 12 12 12 12 12 12 12 12 12 12 12 12 12 12 12 12 12 12 12 12 12 12 12 12 12 12 12 12 12 12 12 12 12 12 12 12 12 12 12 12 12 12 12 12 12 12 12 12 12 12 12 12 12 12 12 12 12 12 12 12 12 12 12 12 12 12 12 12 12 12 12 12 12 12 12 12 12 12 12 12 12 12 12 12 12 12 12 12 12 12 12 12 12 12 12 12 12 12 12 12 12 12 12 12 12 12 12 12 12 12 12 12 12 12 12 12 12 12 12 12 12 12 12 12 12 12 12 12 12 12 12 12 12 12 12 12 12 12 12 12 12 12 12 12 12 12 12 12 12 12 12 12 12 12 12 12 12 12 12 12 12 12 12 </DataArray>
</Cells>
<CellData Scalars="scalars">
<DataArray type="Float32" Name="number_density" format="ascii">
1.296e+16 8.64e+15 8.64e+15 1.08e+16 6.48e+15 1.08e+16 1.08e+16 1.944e+16 8.64e+15 4.32e+15 8.64e+15 8.64e+15 1.512e+16 1.296e+16 1.512e+16 1.296e+16 8.64e+15 6.48e+15 1.08e+16 6.48e+15 2.16e+15 0 2.376e+16 2.16e+15 4.32e+15 2.16e+15 1.08e+16 1.512e+16 2.16e+15 1.08e+16 1.728e+16 4.32e+15 4.32e+15 1.728e+16 1.296e+16 2.376e+16 1.08e+16 1.08e+16 8.64e+15 1.08e+16 4.32e+15 6.48e+15 8.64e+15 1.08e+16 1.296e+16 8.64e+15 6.48e+15 6.48e+15 1.512e+16 1.944e+16 1.08e+16 1.944e+16 1.296e+16 1.512e+16 1.728e+16 2.16e+15 1.512e+16 1.08e+16 1.512e+16 1.512e+16 1.512e+16 2.16e+15 1.08e+16 4.32e+15 8.64e+15 2.16e+15 8.64e+15 6.48e+15 0 8.64e+15 1.08e+16 4.32e+15 1.944e+16 8.64e+15 2.16e+15 1.08e+16 8.64e+15 1.512e+16 1.08e+16 4.32e+15 1.944e+16 1.296e+16 1.512e+16 8.64e+15 1.512e+16 1.08e+16 1.08e+16 6.48e+15 6.48e+15 1.296e+16 1.512e+16 6.48e+15 1.296e+16 1.296e+16 6.48e+15 8.64e+15 8.64e+15 1.08e+16 8.64e+15 6.48e+15 0 6.48e+15 1.512e+16 8.64e+15 4.32e+15 1.728e+16 2.16e+15 1.728e+16 6.48e+15 1.08e+16 1.296e+16 8.64e+15 1.944e+16 1.08e+16 1.296e+16 1.08e+16 1.296e+16 1.728e+16 1.944e+16 1.296e+16 4.32e+15 6.48e+15 1.296e+16 1.296e+16 4.32e+15 2.16e+15 4.32e+15 6.48e+15 6.48e+15 8.64e+15 1.728e+16 1.296e+16 1.728e+16 4.32e+15 0 6.48e+15 1.296e+16 4.32e+15 4.32e+15 4.32e+15 1.08e+16 1.08e+16 2.16e+15 1.512e+16 1.08e+16 8.64e+15 1.08e+16 1.728e+16 1.08e+16 1.08e+16 8.64e+15 4.32e+15 4.32e+15 1.296e+16 4.32e+15 2.16e+16 8.64e+15 6.48e+15 1.08e+16 1.512e+16 1.08e+16 2.16e+15 1.296e+16 1.296e+16 1.944e+16 1.728e+16 6.48e+15 6.48e+15 1.944e+16 1.512e+16 1.296e+16 4.32e+15 8.64e+15 1.512e+16 8.64e+15 8.64e+15 1.08e+16 1.08e+16 4.32e+15 8.64e+15 1.728e+16 4.32e+15 1.728e+16 8.64e+15 4.32e+15 1.296e+16 2.16e+15 1.512e+16 4.32e+15 8.64e+15 1.08e+16 1.08e+16 1.08e+16 1.08e+16 1.08e+16 1.08e+16 2.376e+16 6.48e+15 8.64e+15 8.64e+15 1.08e+16 6.48e+15 4.32e+15 6.48e+15 1.728e+16 6.48e+15 8.64e+15 1.296e+16 1.296e+16 2.16e+15 6.48e+15 4.32e+15 1.08e+16 8.64e+15 8.64e+15 1.08e+16 </DataArray>
<DataArray type="Float32" Name="potential" format="ascii">
0 0 0 0 0 0 0 0 0 0 0 0 0 0 0 0 0 0 0 0 0 0 0 0 0 0 0 0 0 0 0 0 0 0 0 0 0 0 0 0 0 0 0 0 0 0 0 0 0 0 0 0 0 0 0 0 0 0 0 0 0 0 0 0 0 0 0 0 0 0 0 0 0 0 0 0 0 0 0 0 0 0 0 0 0 0 0 0 0 0 0 0 0 0 0 0 0 0 0 0 0 0 0 0 0 0 0 0 0 0 0 0 0 0 0 0 0 0 0 0 0 0 0 0 0 0 0 0 0 0 0 0 0 0 0 0 0 0 0 0 0 0 0 0 0 0 0 0 0 0 0 0 0 0 0 0 0 0 0 0 0 0 0 0 0 0 0 0 0 0 0 0 0 0 0 0 0 0 0 0 0 0 0 0 0 0 0 0 0 0 0 0 0 0 0 0 0 0 0 0 0 0 0 0 0 0 0 0 0 0 0 0 0 0 0 0 </DataArray>
<DataArray type="Float32" Name="temperature" format="ascii">
220.022 188.171 103.507 422.03 257.085 370.675 238.874 346.769 415.495 135.87 190.183 170.256 381.262 354.322 169.553 356.95 127.999 108.571 278.174 230.782 1e-15 0 277.487 1e-15 124.758 1e-15 128.335 278.289 1e-15 132.929 213.23 42.5688 81.7705 242.976 393.865 254.739 130.802 218.78 292.643 163.738 55.0787 288.532 187.989 157.046 488.511 238.289 117.859 433.547 412.531 235.738 313.413 223.477 450.804 145.041 454.271 1e-15 234.415 244.404 252.802 469.038 260.104 1e-15 291.227 131.738 296.481 1e-15 259.31 264.828 0 295.721 319.876 63.6731 323.116 223.241 1e-15 309.8 408.296 240.034 122.193 104.385 316.238 670.322 218.927 267.564 189.103 284.58 161.017 64.5092 62.2828 315.176 308.475 115.351 404.217 317.611 243.715 224.643 206.699 109.28 612.789 86.6316 0 57.5654 294.613 268.137 398.749 236.768 1e-15 260.16 72.8782 356.709 332.216 111.192 356.155 359.594 305.846 299.851 563.229 296.221 323.425 391.064 26.7946 331.186 402.595 442.872 142.861 1e-15 125.57 193.035 327.891 405.418 363.014 331.482 274.304 721.174 0 258.877 139.827 331.496 279.439 39.1339 222.529 353.153 1e-15 265.778 204.491 166.683 225.68 262.677 274.598 275.4 400.227 544.666 77.903 590.57 104.246 256.026 304.205 188.609 477.476 304.019 356.529 1.16799e-13 408.765 210.575 362.332 382.47 438.363 191.459 193.991 269.188 356.483 229.586 565.24 264.5 178.933 502.459 333.506 237.893 165.988 186.215 243.603 176.981 172.168 512.761 44.6588 229.048 1e-15 182.709 30.0046 143.564 264.162 269.673 205.216 562.654 502.955 254.624 406.676 98.4376 205.885 99.4453 229.909 272.947 55.1268 226.124 402.819 224.886 167.21 439.072 280.812 1e-15 158.084 260.083 347.186 188.048 145.403 164.784 </DataArray>
<DataArray type="Float32" Name="velocity" format="ascii">
189.127 233.248 318.786 162.364 251.698 207.1 274.054 265.697 480.569 479.055 453.99 361.549 248.774 456.113 501.813 620.029 167.379 164.102 131.549 529.812 664.347 0 506.171 346.595 90.5739 519.474 485.433 380.452 166.02 313.971 99.3873 255.359 579.106 228.33 187.434 149.691 263.862 217.565 384.534 261.335 354.629 181.218 211.846 494.321 535.185 559.204 170.626 287.099 579.446 693.607 867.998 874.962 433.548 291.189 331.637 445.533 808.438 1012.31 410.736 363.64 467.598 686.81 622.313 377.266 631.708 623.44 143.281 664.525 0 623.533 285.365 244.59 140.66 450.005 725.622 161.755 135.341 135.415 660.184 626.558 880.369 562.848 535.342 417.19 541.217 1028.41 1272.95 966.298 547.307 418.515 651.648 999.984 1260.11 1200.33 562.097 480.216 535.469 622.887 373.678 844.448 0 398.959 294.823 399.673 680.511 414.002 579.971 171.944 304.818 301.772 169.886 196.817 108.957 269.436 326.366 659.455 675.139 561.025 479.765 255.345 525.135 827.17 1176.85 832.185 1146.02 524.002 864.313 951.842 1237.09 1049.3 706.244 339.246 378.284 565.912 0 651.949 566.396 605.489 522.293 327.349 376.016 512.73 316.549 269.46 276.934 207.849 499.458 243.275 180.048 308.998 252.389 294.309 308.591 172.482 120.475 143.143 441.327 609.356 526.961 550.286 298.991 767.524 363.953 452.696 561.156 491.24 439.939 273.619 317.218 430.763 513.993 392.308 319.022 210.495 225.574 220.488 373.987 262.724 435.865 339.896 141.612 300.968 100.043 214.626 217.585 158.939 464.618 130.525 310.924 161.122 188.751 274.846 258.575 257.318 297.888 171.648 71.3413 230.638 217.017 416.587 447.519 240.331 364.941 497.615 104.753 323.552 150.661 409.82 308.03 440.873 161.921 328.559 192.452 360.364 250.739 126.015 </DataArray>
<DataArray type="Float32" Name="E_field" format="ascii">
0 0 0 0 0 0 0 0 0 0 0 0 0 0 0 0 0 0 0 0 0 0 0 0 0 0 0 0 0 0 0 0 0 0 0 0 0 0 0 0 0 0 0 0 0 0 0 0 0 0 0 0 0 0 0 0 0 0 0 0 0 0 0 0 0 0 0 0 0 0 0 0 0 0 0 0 0 0 0 0 0 0 0 0 0 0 0 0 0 0 0 0 0 0 0 0 0 0 0 0 0 0 0 0 0 0 0 0 0 0 0 0 0 0 0 0 0 0 0 0 0 0 0 0 0 0 0 0 0 0 0 0 0 0 0 0 0 0 0 0 0 0 0 0 0 0 0 0 0 0 0 0 0 0 0 0 0 0 0 0 0 0 0 0 0 0 0 0 0 0 0 0 0 0 0 0 0 0 0 0 0 0 0 0 0 0 0 0 0 0 0 0 0 0 0 0 0 0 0 0 0 0 0 0 0 0 0 0 0 0 0 0 0 0 0 0 </DataArray>
</CellData>
<PointData Scalars="number_density">
<DataArray type="Float32" Name="number_density" format="ascii">
1.728e+16 6.48e+15 1.728e+16 1.296e+16 2.376e+16 1.08e+16 1.296e+16 1.08e+16 1.296e+16 1.188e+16 9.72e+15 6.48e+15 7.56e+15 1.188e+16 1.296e+16 9.72e+15 6.48e+15 9.72e+15 1.404e+16 8.64e+15 1.296e+16 1.512e+16 1.188e+16 1.188e+16 1.296e+16 1.296e+16 7.56e+15 1.08e+16 1.404e+16 1.08e+16 1.62e+16 1.188e+16 9.72e+15 6.48e+15 4.32e+15 6.48e+15 8.64e+15 1.188e+16 1.188e+16 1.08e+16 1.296e+16 1.08e+16 8.64e+15 9.72e+15 7.56e+15 4.32e+15 6.48e+15 1.728e+16 1.08e+16 4.32e+15 1.08e+16 1.512e+16 1.836e+16 5.4e+15 7.56e+15 9.72e+15 8.64e+15 9.72e+15 1.08e+16 1.08e+16 1.296e+16 6.48e+15 8.64e+15 1.08e+16 8.64e+15 9.72e+15 8.64e+15 8.64e+15 1.08e+16 1.242e+16 1.458e+16 1.188e+16 1.134e+16 1.242e+16 1.242e+16 1.566e+16 1.404e+16 1.188e+16 1.242e+16 1.08e+16 9.72e+15 1.134e+16 1.134e+16 9.72e+15 8.64e+15 7.56e+15 1.35e+16 1.242e+16 9.72e+15 7.56e+15 1.026e+16 1.458e+16 1.296e+16 1.026e+16 7.56e+15 9.72e+15 9.18e+15 8.1e+15 7.56e+15 8.1e+15 1.296e+16 1.08e+16 9.18e+15 1.08e+16 8.1e+15 9.18e+15 9.18e+15 1.188e+16 1.08e+16 9.72e+15 5.94e+15 9.72e+15 1.404e+16 9.18e+15 7.56e+15 5.4e+15 1.026e+16 1.404e+16 9.18e+15 3.78e+15 7.56e+15 1.242e+16 1.296e+16 9.72e+15 4.86e+15 7.56e+15 9.72e+15 8.64e+15 8.1e+15 7.02e+15 1.08e+16 8.1e+15 9.18e+15 6.48e+15 8.64e+15 1.08e+16 7.02e+15 7.56e+15 7.02e+15 8.64e+15 1.026e+16 8.1e+15 8.1e+15 8.64e+15 7.56e+15 1.026e+16 1.08e+16 8.64e+15 1.026e+16 8.64e+15 9.72e+15 9.18e+15 6.48e+15 9.72e+15 1.026e+16 9.72e+15 1.134e+16 1.026e+16 9.72e+15 1.026e+16 8.64e+15 1.35e+16 1.296e+16 9.72e+15 1.026e+16 9.72e+15 8.1e+15 9.72e+15 1.026e+16 1.026e+16 1.35e+16 1.026e+16 9.72e+15 9.18e+15 1.08e+16 1.242e+16 1.404e+16 1.296e+16 1.134e+16 8.64e+15 8.64e+15 1.188e+16 1.35e+16 1.242e+16 7.56e+15 8.1e+15 8.64e+15 8.64e+15 1.08e+16 9.18e+15 9.72e+15 8.1e+15 7.02e+15 1.296e+16 1.134e+16 8.1e+15 7.56e+15 8.64e+15 1.458e+16 1.404e+16 1.026e+16 8.64e+15 8.1e+15 1.134e+16 9.18e+15 7.56e+15 1.134e+16 1.026e+16 5.94e+15 5.4e+15 7.02e+15 1.026e+16 9.72e+15 7.02e+15 5.4e+15 1.188e+16 1.188e+16 1.242e+16 1.161e+16 1.107e+16 9.18e+15 7.56e+15 7.29e+15 1.404e+16 1.377e+16 1.161e+16 1.026e+16 9.18e+15 1.242e+16 1.053e+16 1.08e+16 1.296e+16 1.242e+16 7.56e+15 6.48e+15 8.64e+15 9.99e+15 9.99e+15 7.56e+15 5.13e+15 8.91e+15 9.99e+15 9.45e+15 1.053e+16 9.72e+15 1.08e+16 9.72e+15 8.91e+15 1.188e+16 1.242e+16 1.269e+16 1.107e+16 1.053e+16 1.269e+16 1.107e+16 1.242e+16 1.134e+16 1.161e+16 9.72e+15 8.64e+15 1.026e+16 8.1e+15 7.83e+15 9.45e+15 6.48e+15 7.56e+15 7.29e+15 6.48e+15 1.053e+16 1.026e+16 1.215e+16 1.404e+16 1.377e+16 9.45e+15 1.107e+16 1.323e+16 1.188e+16 1.026e+16 8.64e+15 9.18e+15 1.053e+16 9.45e+15 8.91e+15 9.18e+15 7.02e+15 7.83e+15 8.91e+15 8.64e+15 9.18e+15 6.48e+15 8.1e+15 7.29e+15 7.56e+15 9.18e+15 9.45e+15 1.215e+16 1.377e+16 1.377e+16 7.83e+15 8.64e+15 1.242e+16 1.215e+16 9.72e+15 7.83e+15 1.026e+16 1.296e+16 1.161e+16 7.83e+15 1.161e+16 9.72e+15 9.45e+15 1.026e+16 1.053e+16 1.026e+16 8.37e+15 8.37e+15 7.56e+15 8.91e+15 8.91e+15 8.64e+15 1.053e+16 9.72e+15 1.08e+16 8.37e+15 8.37e+15 9.72e+15 1.215e+16 1.134e+16 9.99e+15 1.134e+16 1.269e+16 1.188e+16 8.37e+15 1.269e+16 1.188e+16 1.161e+16 9.18e+15 7.83e+15 1.08e+16 9.72e+15 9.99e+15 8.91e+15 8.91e+15 </DataArray>
<DataArray type="Float32" Name="potential" format="ascii">
0 0 0 0 0 0 0 0 0 0 0 0 0 0 0 0 0 0 0 0 0 0 0 0 0 0 0 0 0 0 0 0 0 0 0 0 0 0 0 0 0 0 0 0 0 0 0 0 0 0 0 0 0 0 0 0 0 0 0 0 0 0 0 0 0 0 0 0 0 0 0 0 0 0 0 0 0 0 0 0 0 0 0 0 0 0 0 0 0 0 0 0 0 0 0 0 0 0 0 0 0 0 0 0 0 0 0 0 0 0 0 0 0 0 0 0 0 0 0 0 0 0 0 0 0 0 0 0 0 0 0 0 0 0 0 0 0 0 0 0 0 0 0 0 0 0 0 0 0 0 0 0 0 0 0 0 0 0 0 0 0 0 0 0 0 0 0 0 0 0 0 0 0 0 0 0 0 0 0 0 0 0 0 0 0 0 0 0 0 0 0 0 0 0 0 0 0 0 0 0 0 0 0 0 0 0 0 0 0 0 0 0 0 0 0 0 0 0 0 0 0 0 0 0 0 0 0 0 0 0 0 0 0 0 0 0 0 0 0 0 0 0 0 0 0 0 0 0 0 0 0 0 0 0 0 0 0 0 0 0 0 0 0 0 0 0 0 0 0 0 0 0 0 0 0 0 0 0 0 0 0 0 0 0 0 0 0 0 0 0 0 0 0 0 0 0 0 0 0 0 0 0 0 0 0 0 0 0 0 0 0 0 0 0 0 0 0 0 0 0 0 0 0 0 0 0 0 0 0 0 0 0 0 0 0 0 0 0 0 0 0 0 0 </DataArray>
<DataArray type="Float32" Name="temperature" format="ascii">