<VTKFile type="UnstructuredGrid" version="0.1" byte_order="LittleEndian">
<UnstructuredGrid>
<Piece NumberOfPoints="343" NumberOfCells="216">
<Points>
<DataArray type="Float32" NumberOfComponents="3" format="ascii">
-0.05 -0.05 -0.05 0.05 -0.05 -0.05 0.05 0.05 -0.05 -0.05 0.05 -0.05 -0.05 -0.05 0.05 0.05 -0.05 0.05 0.05 0.05 0.05 -0.05 0.05 0.05 -0.0333333 -0.05 -0.05 -0.0166667 -0.05 -0.05 0 -0.05 -0.05 0.0166667 -0.05 -0.05 0.0333333 -0.05 -0.05 0.05 -0.0333333 -0.05 0.05 -0.0166667 -0.05 0.05 0 -0.05 0.05 0.0166667 -0.05 0.05 0.0333333 -0.05 0.0333333 0.05 -0.05 0.0166667 0.05 -0.05 0 0.05 -0.05 -0.0166667 0.05 -0.05 -0.0333333 0.05 -0.05 -0.05 0.0333333 -0.05 -0.05 0.0166667 -0.05 -0.05 0 -0.05 -0.05 -0.0166667 -0.05 -0.05 -0.0333333 -0.05 -0.0333333 -0.05 0.05 -0.0166667 -0.05 0.05 0 -0.05 0.05 0.0166667 -0.05 0.05 0.0333333 -0.05 0.05 0.05 -0.0333333 0.05 0.05 -0.0166667 0.05 0.05 0 0.05 0.05 0.0166667 0.05 0.05 0.0333333 0.05 0.0333333 0.05 0.05 0.0166667 0.05 0.05 0 0.05 0.05 -0.0166667 0.05 0.05 -0.0333333 0.05 0.05 -0.05 0.0333333 0.05 -0.05 0.0166667 0.05 -0.05 0 0.05 -0.05 -0.0166667 0.05 -0.05 -0.0333333 0.05 -0.05 -0.05 -0.0333333 -0.05 -0.05 -0.0166667 -0.05 -0.05 0 -0.05 -0.05 0.0166667 -0.05 -0.05 0.0333333 0.05 -0.05 -0.0333333 0.05 -0.05 -0.0166667 0.05 -0.05 0 0.05 -0.05 0.0166667 0.05 -0.05 0.0333333 0.05 0.05 -0.0333333 0.05 0.05 -0.0166667 0.05 0.05 0 0.05 0.05 0.0166667 0.05 0.05 0.0333333 -0.05 0.05 -0.0333333 -0.05 0.05 -0.0166667 -0.05 0.05 0 -0.05 0.05 0.0166667 -0.05 0.05 0.0333333 -0.0333333 0.0333333 -0.05 -0.0333333 0.0166667 -0.05 -0.0333333 -3.55271e-18 -0.05 -0.0333333 -0.0166667 -0.05 -0.0333333 -0.0333333 -0.05 -0.0166667 0.0333333 -0.05 -0.0166667 0.0166667 -0.05 -0.0166667 -7.10543e-18 -0.05 -0.0166667 -0.0166667 -0.05 -0.0166667 -0.0333333 -0.05 1.77636e-18 0.0333333 -0.05 5.32907e-18 0.0166667 -0.05 3.55271e-18 -1.77636e-18 -0.05 7.10543e-18 -0.0166667 -0.05 3.55271e-18 -0.0333333 -0.05 0.0166667 0.0333333 -0.05 0.0166667 0.0166667 -0.05 0.0166667 -7.10543e-18 -0.05 0.0166667 -0.0166667 -0.05 0.0166667 -0.0333333 -0.05 0.0333333 0.0333333 -0.05 0.0333333 0.0166667 -0.05 0.0333333 -1.77636e-18 -0.05 0.0333333 -0.0166667 -0.05 0.0333333 -0.0333333 -0.05 -0.0333333 -0.0333333 0.05 -0.0333333 -0.0166667 0.05 -0.0333333 0 0.05 -0.0333333 0.0166667 0.05 -0.0333333 0.0333333 0.05 -0.0166667 -0.0333333 0.05 -0.0166667 -0.0166667 0.05 -0.0166667 0 0.05 -0.0166667 0.0166667 0.05 -0.0166667 0.0333333 0.05 0 -0.0333333 0.05 0 -0.0166667 0.05 0 0 0.05 0 0.0166667 0.05 0 0.0333333 0.05 0.0166667 -0.0333333 0.05 0.0166667 -0.0166667 0.05 0.0166667 0 0.05 0.0166667 0.0166667 0.05 0.0166667 0.0333333 0.05 0.0333333 -0.0333333 0.05 0.0333333 -0.0166667 0.05 0.0333333 1.77636e-18 0.05 0.0333333 0.0166667 0.05 0.0333333 0.0333333 0.05 -0.0333333 -0.05 -0.0333333 -0.0333333 -0.05 -0.0166667 -0.0333333 -0.05 0 -0.0333333 -0.05 0.0166667 -0.0333333 -0.05 0.0333333 -0.0166667 -0.05 -0.0333333 -0.0166667 -0.05 -0.0166667 -0.0166667 -0.05 0 -0.0166667 -0.05 0.0166667 -0.0166667 -0.05 0.0333333 0 -0.05 -0.0333333 0 -0.05 -0.0166667 0 -0.05 0 0 -0.05 0.0166667 0 -0.05 0.0333333 0.0166667 -0.05 -0.0333333 0.0166667 -0.05 -0.0166667 0.0166667 -0.05 0 0.0166667 -0.05 0.0166667 0.0166667 -0.05 0.0333333 0.0333333 -0.05 -0.0333333 0.0333333 -0.05 -0.0166667 0.0333333 -0.05 1.77636e-18 0.0333333 -0.05 0.0166667 0.0333333 -0.05 0.0333333 0.05 -0.0333333 -0.0333333 0.05 -0.0333333 -0.0166667 0.05 -0.0333333 0 0.05 -0.0333333 0.0166667 0.05 -0.0333333 0.0333333 0.05 -0.0166667 -0.0333333 0.05 -0.0166667 -0.0166667 0.05 -0.0166667 0 0.05 -0.0166667 0.0166667 0.05 -0.0166667 0.0333333 0.05 0 -0.0333333 0.05 0 -0.0166667 0.05 0 0 0.05 0 0.0166667 0.05 0 0.0333333 0.05 0.0166667 -0.0333333 0.05 0.0166667 -0.0166667 0.05 0.0166667 0 0.05 0.0166667 0.0166667 0.05 0.0166667 0.0333333 0.05 0.0333333 -0.0333333 0.05 0.0333333 -0.0166667 0.05 0.0333333 1.77636e-18 0.05 0.0333333 0.0166667 0.05 0.0333333 0.0333333 0.0333333 0.05 -0.0333333 0.0333333 0.05 -0.0166667 0.0333333 0.05 0 0.0333333 0.05 0.0166667 0.0333333 0.05 0.0333333 0.0166667 0.05 -0.0333333 0.0166667 0.05 -0.0166667 0.0166667 0.05 0 0.0166667 0.05 0.0166667 0.0166667 0.05 0.0333333 0 0.05 -0.0333333 0 0.05 -0.0166667 0 0.05 0 0 0.05 0.0166667 0 0.05 0.0333333 -0.0166667 0.05 -0.0333333 -0.0166667 0.05 -0.0166667 -0.0166667 0.05 0 -0.0166667 0.05 0.0166667 -0.0166667 0.05 0.0333333 -0.0333333 0.05 -0.0333333 -0.0333333 0.05 -0.0166667 -0.0333333 0.05 1.77636e-18 -0.0333333 0.05 0.0166667 -0.0333333 0.05 0.0333333 -0.05 0.0333333 -0.0333333 -0.05 0.0333333 -0.0166667 -0.05 0.0333333 0 -0.05 0.0333333 0.0166667 -0.05 0.0333333 0.0333333 -0.05 0.0166667 -0.0333333 -0.05 0.0166667 -0.0166667 -0.05 0.0166667 0 -0.05 0.0166667 0.0166667 -0.05 0.0166667 0.0333333 -0.05 0 -0.0333333 -0.05 0 -0.0166667 -0.05 0 0 -0.05 0 0.0166667 -0.05 0 0.0333333 -0.05 -0.0166667 -0.0333333 -0.05 -0.0166667 -0.0166667 -0.05 -0.0166667 0 -0.05 -0.0166667 0.0166667 -0.05 -0.0166667 0.0333333 -0.05 -0.0333333 -0.0333333 -0.05 -0.0333333 -0.0166667 -0.05 -0.0333333 1.77636e-18 -0.05 -0.0333333 0.0166667 -0.05 -0.0333333 0.0333333 -0.0333333 0.0333333 -0.0333333 -0.0333333 0.0333333 -0.0166667 -0.0333333 0.0333333 4.44089e-19 -0.0333333 0.0333333 0.0166667 -0.0333333 0.0333333 0.0333333 -0.0333333 0.0166667 -0.0333333 -0.0333333 0.0166667 -0.0166667 -0.0333333 0.0166667 -4.44089e-18 -0.0333333 0.0166667 0.0166667 -0.0333333 0.0166667 0.0333333 -0.0333333 -6.66134e-18 -0.0333333 -0.0333333 -9.76996e-18 -0.0166667 -0.0333333 -1.77636e-18 -1.77636e-18 -0.0333333 -1.77636e-18 0.0166667 -0.0333333 3.55271e-18 0.0333333 -0.0333333 -0.0166667 -0.0333333 -0.0333333 -0.0166667 -0.0166667 -0.0333333 -0.0166667 1.77636e-18 -0.0333333 -0.0166667 0.0166667 -0.0333333 -0.0166667 0.0333333 -0.0333333 -0.0333333 -0.0333333 -0.0333333 -0.0333333 -0.0166667 -0.0333333 -0.0333333 0 -0.0333333 -0.0333333 0.0166667 -0.0333333 -0.0333333 0.0333333 -0.0166667 0.0333333 -0.0333333 -0.0166667 0.0333333 -0.0166667 -0.0166667 0.0333333 2.66454e-18 -0.0166667 0.0333333 0.0166667 -0.0166667 0.0333333 0.0333333 -0.0166667 0.0166667 -0.0333333 -0.0166667 0.0166667 -0.0166667 -0.0166667 0.0166667 -1.77636e-18 -0.0166667 0.0166667 0.0166667 -0.0166667 0.0166667 0.0333333 -0.0166667 -1.06581e-17 -0.0333333 -0.0166667 -1.15463e-17 -0.0166667 -0.0166667 -3.55271e-18 0 -0.0166667 -8.88178e-18 0.0166667 -0.0166667 -1.77636e-18 0.0333333 -0.0166667 -0.0166667 -0.0333333 -0.0166667 -0.0166667 -0.0166667 -0.0166667 -0.0166667 3.55271e-18 -0.0166667 -0.0166667 0.0166667 -0.0166667 -0.0166667 0.0333333 -0.0166667 -0.0333333 -0.0333333 -0.0166667 -0.0333333 -0.0166667 -0.0166667 -0.0333333 0 -0.0166667 -0.0333333 0.0166667 -0.0166667 -0.0333333 0.0333333 3.44169e-18 0.0333333 -0.0333333 1.02141e-17 0.0333333 -0.0166667 2.66454e-18 0.0333333 -8.88178e-19 6.21725e-18 0.0333333 0.0166667 1.33227e-18 0.0333333 0.0333333 7.99361e-18 0.0166667 -0.0333333 8.43769e-18 0.0166667 -0.0166667 8.88178e-19 0.0166667 8.88178e-19 7.99361e-18 0.0166667 0.0166667 3.55271e-18 0.0166667 0.0333333 3.55271e-18 -1.77636e-18 -0.0333333 9.76996e-18 -9.76996e-18 -0.0166667 0 -8.88178e-19 -8.88178e-19 8.88178e-18 -8.88178e-18 0.0166667 1.77636e-18 -1.77636e-18 0.0333333 1.02141e-17 -0.0166667 -0.0333333 1.24345e-17 -0.0166667 -0.0166667 3.55271e-18 -0.0166667 -1.77636e-18 8.88178e-18 -0.0166667 0.0166667 3.55271e-18 -0.0166667 0.0333333 5.77316e-18 -0.0333333 -0.0333333 4.44089e-18 -0.0333333 -0.0166667 1.77636e-18 -0.0333333 1.77636e-18 5.32907e-18 -0.0333333 0.0166667 0 -0.0333333 0.0333333 0.0166667 0.0333333 -0.0333333 0.0166667 0.0333333 -0.0166667 0.0166667 0.0333333 -2.66454e-18 0.0166667 0.0333333 0.0166667 0.0166667 0.0333333 0.0333333 0.0166667 0.0166667 -0.0333333 0.0166667 0.0166667 -0.0166667 0.0166667 0.0166667 3.10862e-18 0.0166667 0.0166667 0.0166667 0.0166667 0.0166667 0.0333333 0.0166667 -1.24345e-17 -0.0333333 0.0166667 -1.37668e-17 -0.0166667 0.0166667 -3.55271e-18 -1.77636e-18 0.0166667 -6.21725e-18 0.0166667 0.0166667 -8.88178e-19 0.0333333 0.0166667 -0.0166667 -0.0333333 0.0166667 -0.0166667 -0.0166667 0.0166667 -0.0166667 2.66454e-18 0.0166667 -0.0166667 0.0166667 0.0166667 -0.0166667 0.0333333 0.0166667 -0.0333333 -0.0333333 0.0166667 -0.0333333 -0.0166667 0.0166667 -0.0333333 0 0.0166667 -0.0333333 0.0166667 0.0166667 -0.0333333 0.0333333 0.0333333 0.0333333 -0.0333333 0.0333333 0.0333333 -0.0166667 0.0333333 0.0333333 3.33067e-19 0.0333333 0.0333333 0.0166667 0.0333333 0.0333333 0.0333333 0.0333333 0.0166667 -0.0333333 0.0333333 0.0166667 -0.0166667 0.0333333 0.0166667 1.11022e-18 0.0333333 0.0166667 0.0166667 0.0333333 0.0166667 0.0333333 0.0333333 -4.44089e-18 -0.0333333 0.0333333 -4.21885e-18 -0.0166667 0.0333333 8.88178e-19 8.88178e-19 0.0333333 -1.33227e-18 0.0166667 0.0333333 3.55271e-18 0.0333333 0.0333333 -0.0166667 -0.0333333 0.0333333 -0.0166667 -0.0166667 0.0333333 -0.0166667 2.22045e-18 0.0333333 -0.0166667 0.0166667 0.0333333 -0.0166667 0.0333333 0.0333333 -0.0333333 -0.0333333 0.0333333 -0.0333333 -0.0166667 0.0333333 -0.0333333 2.22045e-18 0.0333333 -0.0333333 0.0166667 0.0333333 -0.0333333 0.0333333 </DataArray>
</Points>
<Cells>
<DataArray type="Int32" Name="connectivity" format="ascii">
68 22 3 23 218 188 63 193 218 188 63 193 219 189 64 194 219 189 64 194 220 190 65 195 220 190 65 195 221 191 66 196 221 191 66 196 222 192 67 197 222 192 67 197 97 42 7 43 69 68 23 24 223 218 193 198 223 218 193 198 224 219 194 199 224 219 194 199 225 220 195 200 225 220 195 200 226 221 196 201 226 221 196 201 227 222 197 202 227 222 197 202 96 97 43 44 70 69 24 25 228 223 198 203 228 223 198 203 229 224 199 204 229 224 199 204 230 225 200 205 230 225 200 205 231 226 201 206 231 226 201 206 232 227 202 207 232 227 202 207 95 96 44 45 71 70 25 26 233 228 203 208 233 228 203 208 234 229 204 209 234 229 204 209 235 230 205 210 235 230 205 210 236 231 206 211 236 231 206 211 237 232 207 212 237 232 207 212 94 95 45 46 72 71 26 27 238 233 208 213 238 233 208 213 239 234 209 214 239 234 209 214 240 235 210 215 240 235 210 215 241 236 211 216 241 236 211 216 242 237 212 217 242 237 212 217 93 94 46 47 8 72 27 0 118 238 213 48 118 238 213 48 119 239 214 49 119 239 214 49 120 240 215 50 120 240 215 50 121 241 216 51 121 241 216 51 122 242 217 52 122 242 217 52 28 93 47 4 73 21 22 68 243 183 188 218 243 183 188 218 244 184 189 219 244 184 189 219 245 185 190 220 245 185 190 220 246 186 191 221 246 186 191 221 247 187 192 222 247 187 192 222 102 41 42 97 74 73 68 69 248 243 218 223 248 243 218 223 249 244 219 224 249 244 219 224 250 245 220 225 250 245 220 225 251 246 221 226 251 246 221 226 252 247 222 227 252 247 222 227 101 102 97 96 75 74 69 70 253 248 223 228 253 248 223 228 254 249 224 229 254 249 224 229 255 250 225 230 255 250 225 230 256 251 226 231 256 251 226 231 257 252 227 232 257 252 227 232 100 101 96 95 76 75 70 71 258 253 228 233 258 253 228 233 259 254 229 234 259 254 229 234 260 255 230 235 260 255 230 235 261 256 231 236 261 256 231 236 262 257 232 237 262 257 232 237 99 100 95 94 77 76 71 72 263 258 233 238 263 258 233 238 264 259 234 239 264 259 234 239 265 260 235 240 265 260 235 240 266 261 236 241 266 261 236 241 267 262 237 242 267 262 237 242 98 99 94 93 9 77 72 8 123 263 238 118 123 263 238 118 124 264 239 119 124 264 239 119 125 265 240 120 125 265 240 120 126 266 241 121 126 266 241 121 127 267 242 122 127 267 242 122 29 98 93 28 78 20 21 73 268 178 183 243 268 178 183 243 269 179 184 244 269 179 184 244 270 180 185 245 270 180 185 245 271 181 186 246 271 181 186 246 272 182 187 247 272 182 187 247 107 40 41 102 79 78 73 74 273 268 243 248 273 268 243 248 274 269 244 249 274 269 244 249 275 270 245 250 275 270 245 250 276 271 246 251 276 271 246 251 277 272 247 252 277 272 247 252 106 107 102 101 80 79 74 75 278 273 248 253 278 273 248 253 279 274 249 254 279 274 249 254 280 275 250 255 280 275 250 255 281 276 251 256 281 276 251 256 282 277 252 257 282 277 252 257 105 106 101 100 81 80 75 76 283 278 253 258 283 278 253 258 284 279 254 259 284 279 254 259 285 280 255 260 285 280 255 260 286 281 256 261 286 281 256 261 287 282 257 262 287 282 257 262 104 105 100 99 82 81 76 77 288 283 258 263 288 283 258 263 289 284 259 264 289 284 259 264 290 285 260 265 290 285 260 265 291 286 261 266 291 286 261 266 292 287 262 267 292 287 262 267 103 104 99 98 10 82 77 9 128 288 263 123 128 288 263 123 129 289 264 124 129 289 264 124 130 290 265 125 130 290 265 125 131 291 266 126 131 291 266 126 132 292 267 127 132 292 267 127 30 103 98 29 83 19 20 78 293 173 178 268 293 173 178 268 294 174 179 269 294 174 179 269 295 175 180 270 295 175 180 270 296 176 181 271 296 176 181 271 297 177 182 272 297 177 182 272 112 39 40 107 84 83 78 79 298 293 268 273 298 293 268 273 299 294 269 274 299 294 269 274 300 295 270 275 300 295 270 275 301 296 271 276 301 296 271 276 302 297 272 277 302 297 272 277 111 112 107 106 85 84 79 80 303 298 273 278 303 298 273 278 304 299 274 279 304 299 274 279 305 300 275 280 305 300 275 280 306 301 276 281 306 301 276 281 307 302 277 282 307 302 277 282 110 111 106 105 86 85 80 81 308 303 278 283 308 303 278 283 309 304 279 284 309 304 279 284 310 305 280 285 310 305 280 285 311 306 281 286 311 306 281 286 312 307 282 287 312 307 282 287 109 110 105 104 87 86 81 82 313 308 283 288 313 308 283 288 314 309 284 289 314 309 284 289 315 310 285 290 315 310 285 290 316 311 286 291 316 311 286 291 317 312 287 292 317 312 287 292 108 109 104 103 11 87 82 10 133 313 288 128 133 313 288 128 134 314 289 129 134 314 289 129 135 315 290 130 135 315 290 130 136 316 291 131 136 316 291 131 137 317 292 132 137 317 292 132 31 108 103 30 88 18 19 83 318 168 173 293 318 168 173 293 319 169 174 294 319 169 174 294 320 170 175 295 320 170 175 295 321 171 176 296 321 171 176 296 322 172 177 297 322 172 177 297 117 38 39 112 89 88 83 84 323 318 293 298 323 318 293 298 324 319 294 299 324 319 294 299 325 320 295 300 325 320 295 300 326 321 296 301 326 321 296 301 327 322 297 302 327 322 297 302 116 117 112 111 90 89 84 85 328 323 298 303 328 323 298 303 329 324 299 304 329 324 299 304 330 325 300 305 330 325 300 305 331 326 301 306 331 326 301 306 332 327 302 307 332 327 302 307 115 116 111 110 91 90 85 86 333 328 303 308 333 328 303 308 334 329 304 309 334 329 304 309 335 330 305 310 335 330 305 310 336 331 306 311 336 331 306 311 337 332 307 312 337 332 307 312 114 115 110 109 92 91 86 87 338 333 308 313 338 333 308 313 339 334 309 314 339 334 309 314 340 335 310 315 340 335 310 315 341 336 311 316 341 336 311 316 342 337 312 317 342 337 312 317 113 114 109 108 12 92 87 11 138 338 313 133 138 338 313 133 139 339 314 134 139 339 314 134 140 340 315 135 140 340 315 135 141 341 316 136 141 341 316 136 142 342 317 137 142 342 317 137 32 113 108 31 17 2 18 88 163 58 168 318 163 58 168 318 164 59 169 319 164 59 169 319 165 60 170 320 165 60 170 320 166 61 171 321 166 61 171 321 167 62 172 322 167 62 172 322 37 6 38 117 16 17 88 89 158 163 318 323 158 163 318 323 159 164 319 324 159 164 319 324 160 165 320 325 160 165 320 325 161 166 321 326 161 166 321 326 162 167 322 327 162 167 322 327 36 37 117 116 15 16 89 90 153 158 323 328 153 158 323 328 154 159 324 329 154 159 324 329 155 160 325 330 155 160 325 330 156 161 326 331 156 161 326 331 157 162 327 332 157 162 327 332 35 36 116 115 14 15 90 91 148 153 328 333 148 153 328 333 149 154 329 334 149 154 329 334 150 155 330 335 150 155 330 335 151 156 331 336 151 156 331 336 152 157 332 337 152 157 332 337 34 35 115 114 13 14 91 92 143 148 333 338 143 148 333 338 144 149 334 339 144 149 334 339 145 150 335 340 145 150 335 340 146 151 336 341 146 151 336 341 147 152 337 342 147 152 337 342 33 34 114 113 1 13 92 12 53 143 338 138 53 143 338 138 54 144 339 139 54 144 339 139 55 145 340 140 55 145 340 140 56 146 341 141 56 146 341 141 57 147 342 142 57 147 342 142 5 33 113 32 </DataArray>
<DataArray type="Int32" Name="offsets" format="ascii">
8 16 24 32 40 48 56 64 72 80 88 96 104 112 120 128 136 144 152 160 168 176 184 192 200 208 216 224 232 240 248 256 264 272 280 288 296 304 312 320 328 336 344 352 360 368 376 384 392 400 408 416 424 432 440 448 456 464 472 480 488 496 504 512 520 528 536 544 552 560 568 576 584 592 600 608 616 624 632 640 648 656 664 672 680 688 696 704 712 720 728 736 744 752 760 768 776 784 792 800 808 816 824 832 840 848 856 864 872 880 888 896 904 912 920 928 936 944 952 960 968 976 984 992 1000 1008 1016 1024 1032 1040 1048 1056 1064 1072 1080 1088 1096 1104 1112 1120 1128 1136 1144 1152 1160 1168 1176 1184 1192 1200 1208 1216 1224 1232 1240 1248 1256 1264 1272 1280 1288 1296 1304 1312 1320 1328 1336 1344 1352 1360 1368 1376 1384 1392 1400 1408 1416 1424 1432 1440 1448 1456 1464 1472 1480 1488 1496 1504 1512 1520 1528 1536 1544 1552 1560 1568 1576 1584 1592 1600 1608 1616 1624 1632 1640 1648 1656 1664 1672 1680 1688 1696 1704 1712 1720 1728 </DataArray>
<DataArray type="UInt8" Name="types" format="ascii">
12 12 12 12 12 12 12 12 12 12 12 12 12 12 12 12 12 12 12 12 12 12 12 12 12 12 12 12 12 12 12 12 12 12 12 12 12 12 12 12 12 12 12 12 12 12 12 12 12 12 12 12 12 12 12 12 12 12 12 12 12 12 12 12 12 12 12 12 12 12 12 12 12 12 12 12 12 12 12 12 12 12 12 12 12 12 12 12 12 12 12 12 12 12 12 12 12 12 12 12 12 12 12 12 12 12 12 12 12 12 12 12 12 12 12 12 12 12 12 12 12 12 12 12 12 12 12 12 12 12 12 12 12 12 12 12 12 12 12 12 12 12 12 12 12 12 12 12 12 12 12 12 12 12 12 12 12 12 12 12 12 12 12 12 12 12 12 12 12 12 12 12 12 12 12 12 12 12 12 12 12 12 12 12 12 12 12 12 12 12 12 12 12 12 12 12 12 12 12 12 12 12 12 12 12 12 12 12 12 12 12 12 12 12 12 12 </DataArray>
</Cells>
<CellData Scalars="scalars">
<DataArray type="Float32" Name="number_density" format="ascii">
6.48e+15 1.08e+16 4.32e+15 8.64e+15 6.48e+15 1.08e+16 1.08e+16 8.64e+15 4.32e+15 2.16e+15 6.48e+15 8.64e+15 8.64e+15 6.48e+15 2.16e+15 2.16e+15 6.48e+15 8.64e+15 6.48e+15 6.48e+15 6.48e+15 2.16e+15 8.64e+15 2.16e+15 8.64e+15 0 0 4.32e+15 2.16e+15 8.64e+15 1.08e+16 2.16e+15 2.16e+15 1.08e+16 1.296e+16 2.16e+16 1.296e+16 1.512e+16 8.64e+15 1.296e+16 2.16e+15 4.32e+15 8.64e+15 1.512e+16 1.296e+16 2.16e+16 1.296e+16 6.48e+15 1.296e+16 1.296e+16 1.08e+16 8.64e+15 1.512e+16 8.64e+15 8.64e+15 1.08e+16 8.64e+15 4.32e+15 1.512e+16 8.64e+15 2.16e+15 2.16e+15 6.48e+15 8.64e+15 4.32e+15 0 6.48e+15 4.32e+15 2.16e+15 8.64e+15 4.32e+15 4.32e+15 1.296e+16 1.728e+16 1.08e+16 1.728e+16 1.296e+16 1.512e+16 6.48e+15 1.08e+16 1.08e+16 1.944e+16 1.296e+16 6.48e+15 2.16e+15 8.64e+15 8.64e+15 1.08e+16 2.16e+16 1.728e+16 8.64e+15 8.64e+15 6.48e+15 1.296e+16 8.64e+15 6.48e+15 1.08e+16 1.296e+16 1.08e+16 1.296e+16 4.32e+15 6.48e+15 1.08e+16 4.32e+15 0 1.08e+16 2.16e+15 1.512e+16 6.48e+15 1.08e+16 1.296e+16 1.08e+16 1.944e+16 1.944e+16 1.512e+16 1.08e+16 1.08e+16 4.32e+16 2.376e+16 1.08e+16 2.16e+15 4.32e+15 8.64e+15 2.808e+16 2.16e+16 4.32e+15 6.48e+15 4.32e+15 1.296e+16 1.512e+16 1.512e+16 1.944e+16 1.296e+16 2.16e+15 1.296e+16 4.32e+15 6.48e+15 8.64e+15 4.32e+15 2.16e+15 0 4.32e+15 2.16e+15 1.296e+16 6.48e+15 8.64e+15 1.512e+16 2.16e+16 8.64e+15 1.08e+16 4.32e+15 1.08e+16 1.728e+16 4.536e+16 2.376e+16 2.16e+16 8.64e+15 6.48e+15 2.16e+16 2.808e+16 1.944e+16 4.32e+15 1.944e+16 1.296e+16 1.08e+16 1.08e+16 1.512e+16 6.48e+15 1.08e+16 1.296e+16 8.64e+15 1.512e+16 4.32e+15 8.64e+15 4.32e+15 8.64e+15 1.08e+16 4.32e+15 4.32e+15 4.32e+15 1.512e+16 1.08e+16 1.728e+16 1.512e+16 4.32e+15 1.296e+16 6.48e+15 8.64e+15 6.48e+15 1.512e+16 6.48e+15 1.296e+16 1.08e+16 1.512e+16 8.64e+15 1.728e+16 1.728e+16 1.512e+16 1.296e+16 1.08e+16 6.48e+15 6.48e+15 1.08e+16 6.48e+15 6.48e+15 8.64e+15 1.512e+16 4.32e+15 1.512e+16 0 4.32e+15 4.32e+15 8.64e+15 8.64e+15 6.48e+15 1.296e+16 </DataArray>
<DataArray type="Float32" Name="potential" format="ascii">
0 0 0 0 0 0 0 0 0 0 0 0 0 0 0 0 0 0 0 0 0 0 0 0 0 0 0 0 0 0 0 0 0 0 0 0 0 0 0 0 0 0 0 0 0 0 0 0 0 0 0 0 0 0 0 0 0 0 0 0 0 0 0 0 0 0 0 0 0 0 0 0 0 0 0 0 0 0 0 0 0 0 0 0 0 0 0 0 0 0 0 0 0 0 0 0 0 0 0 0 0 0 0 0 0 0 0 0 0 0 0 0 0 0 0 0 0 0 0 0 0 0 0 0 0 0 0 0 0 0 0 0 0 0 0 0 0 0 0 0 0 0 0 0 0 0 0 0 0 0 0 0 0 0 0 0 0 0 0 0 0 0 0 0 0 0 0 0 0 0 0 0 0 0 0 0 0 0 0 0 0 0 0 0 0 0 0 0 0 0 0 0 0 0 0 0 0 0 0 0 0 0 0 0 0 0 0 0 0 0 0 0 0 0 0 0 </DataArray>
<DataArray type="Float32" Name="temperature" format="ascii">
326.288 194.892 66.7185 231.348 283.2 390.98 202.013 257.301 50.0056 1.87012e-13 53.1744 168.992 233.638 232.389 1e-15 1e-15 174.323 352.38 87.915 98.0755 172.26 1.16799e-13 101.598 1e-15 198.021 0 0 90.3833 2.39599e-14 95.2017 120.891 1e-15 1e-15 207.261 251.423 218.379 71.9861 245.808 279.855 338.71 1e-15 196.186 227.482 581.502 417.243 439.268 316.214 211.177 356.275 361.904 208.287 382.756 546.79 170.322 591.873 320.887 295.045 146.188 362.586 719.382 4.72531e-14 1e-15 82.6316 530.884 181.847 0 87.3422 106.248 1e-15 435.448 88.3682 122.152 236.256 501.683 501.183 658.364 601.251 456.606 589.051 462.623 277.394 1317.5 201.682 133.247 1.87012e-13 293.025 242.432 203.641 652.122 294.33 215.201 244.88 213.049 968.241 540.919 248.509 429.697 292.656 457.397 186.516 376.596 211.442 356.583 120.878 0 376.333 1e-15 321.245 224.75 638.058 302.655 353.892 501.747 462.992 380.332 331.14 905.769 1362.95 553.512 348.073 1e-15 193.385 1082.28 877.001 1038.06 128.922 397.019 42.171 863.91 990.224 507.457 355.501 342.042 1e-15 547.227 234.537 1219.37 476.723 343.174 9.38395e-14 0 105.827 1e-15 220.801 203.217 281.412 371.647 361.491 347.964 254.131 147.261 423.023 526.063 1480.29 1015.28 383.992 699.329 90.842 687.627 995.87 565.771 1206.33 343.29 246.439 401.916 566.045 375.875 126.259 190.254 350.881 210.451 516.555 105.908 204.175 148.484 320.619 403.007 67.6387 151.108 78.5595 287.01 275.929 165.954 409.738 38.6166 123.653 145.635 151.35 467.778 530.417 170.176 315.635 196.637 657.384 462.405 480.728 256.789 246.182 177.089 465.288 353.507 537.866 601.672 155.408 263.43 203.523 192.866 121.468 291.611 0 34.4134 124.31 498.272 168.489 162.393 169.705 </DataArray>
<DataArray type="Float32" Name="velocity" format="ascii">
310.825 442.923 548.795 328.231 430.404 80.5604 524.423 590.947 1337.64 976.274 548.316 554.36 517.219 959.206 1067.7 1101.55 643.143 395.757 391.757 942.233 1253.99 1171.51 686.048 572.313 376.915 0 0 870.214 795.354 507.919 81.9365 496.254 725.632 606.498 332.538 430.512 379.545 466.436 520.11 691.004 692.698 323.818 787.617 1155.65 1065.97 1231.18 825.432 494.484 961.234 1488.81 1667.36 1573.25 1173.2 930.47 972.708 1216.06 1908.7 1277.12 1237.5 875.722 890.753 1201.18 1261 1472.34 825.637 0 371.221 719.777 1275.78 816.116 331.327 494.252 449.511 725.634 1243.07 863.95 488.083 393.292 1122.72 1664.73 1639.72 1792.49 1058.04 575.698 1201.04 1781.37 2440.68 2653.65 1532.17 1021.3 1364.14 1878.36 2427.79 2276.98 1447.12 834.58 937.194 1375.56 1343.03 1522.94 951.023 529.43 514.175 932.299 0 1033.82 736.791 402.594 517.001 714.394 715.155 604.733 416.756 172.066 818.479 1558.99 2191.66 1922.2 1167.25 473.828 1757.95 1814.03 2738.08 2591.14 1518.63 893.016 1463.57 1801.04 2220.92 1949.48 1610.25 872.576 885.143 868.545 1426.67 1438.71 1036.45 734.905 349.311 898.289 0 847.848 710.893 350.334 321.205 480.589 788.585 568.211 276.318 222.345 314.558 785.344 1590.95 1366.45 657.897 348.149 915.728 1587.57 1390.68 1637.19 913.596 621.817 830.628 1055.52 1207.06 1128 869.584 568.339 499.644 701.891 1306.9 1090.88 755.257 519.789 516.213 566.205 771.407 751.771 680.067 255.936 229.069 421.447 207.258 297.214 256.338 297.705 330.969 371.667 336.367 699.019 393.569 190.463 482.213 537.498 761.046 665.928 347.472 393.601 368.33 625.477 879.13 713.006 130.778 681.772 492.296 433.645 559.607 530.212 558.419 0 116.773 146.905 371.718 612.187 426.567 266.095 </DataArray>
<DataArray type="Float32" Name="E_field" format="ascii">
0 0 0 0 0 0 0 0 0 0 0 0 0 0 0 0 0 0 0 0 0 0 0 0 0 0 0 0 0 0 0 0 0 0 0 0 0 0 0 0 0 0 0 0 0 0 0 0 0 0 0 0 0 0 0 0 0 0 0 0 0 0 0 0 0 0 0 0 0 0 0 0 0 0 0 0 0 0 0 0 0 0 0 0 0 0 0 0 0 0 0 0 0 0 0 0 0 0 0 0 0 0 0 0 0 0 0 0 0 0 0 0 0 0 0 0 0 0 0 0 0 0 0 0 0 0 0 0 0 0 0 0 0 0 0 0 0 0 0 0 0 0 0 0 0 0 0 0 0 0 0 0 0 0 0 0 0 0 0 0 0 0 0 0 0 0 0 0 0 0 0 0 0 0 0 0 0 0 0 0 0 0 0 0 0 0 0 0 0 0 0 0 0 0 0 0 0 0 0 0 0 0 0 0 0 0 0 0 0 0 0 0 0 0 0 0 </DataArray>
</CellData>
<PointData Scalars="number_density">
<DataArray type="Float32" Name="number_density" format="ascii">
1.08e+16 4.32e+15 1.512e+16 6.48e+15 2.16e+16 1.296e+16 1.296e+16 1.08e+16 8.64e+15 8.64e+15 7.56e+15 4.32e+15 4.32e+15 5.4e+15 9.72e+15 1.188e+16 8.64e+15 1.08e+16 1.08e+16 6.48e+15 9.72e+15 1.296e+16 9.72e+15 8.64e+15 9.72e+15 7.56e+15 7.56e+15 9.72e+15 1.296e+16 9.72e+15 1.404e+16 8.64e+15 8.64e+15 6.48e+15 3.24e+15 1.08e+16 1.404e+16 1.296e+16 1.188e+16 1.512e+16 1.728e+16 9.72e+15 7.56e+15 9.72e+15 8.64e+15 5.4e+15 5.4e+15 1.512e+16 6.48e+15 2.16e+15 6.48e+15 1.188e+16 1.728e+16 4.32e+15 6.48e+15 8.64e+15 7.56e+15 9.72e+15 1.296e+16 1.404e+16 1.62e+16 9.72e+15 8.64e+15 8.64e+15 7.56e+15 6.48e+15 7.56e+15 8.64e+15 9.72e+15 1.026e+16 9.18e+15 6.48e+15 7.02e+15 1.026e+16 7.56e+15 8.1e+15 7.56e+15 7.56e+15 1.026e+16 6.48e+15 4.86e+15 9.72e+15 9.72e+15 8.1e+15 7.56e+15 9.18e+15 1.242e+16 8.1e+15 8.1e+15 7.56e+15 1.296e+16 1.242e+16 6.48e+15 8.64e+15 4.86e+15 7.02e+15 8.1e+15 7.56e+15 6.48e+15 5.4e+15 1.026e+16 9.72e+15 8.1e+15 1.08e+16 1.026e+16 1.188e+16 9.72e+15 1.296e+16 8.64e+15 1.08e+16 8.64e+15 1.026e+16 1.566e+16 6.48e+15 5.4e+15 8.1e+15 1.35e+16 1.458e+16 5.94e+15 2.7e+15 5.94e+15 9.18e+15 1.08e+16 6.48e+15 2.7e+15 5.4e+15 6.48e+15 6.48e+15 5.4e+15 1.62e+15 3.78e+15 4.86e+15 8.1e+15 4.86e+15 5.4e+15 4.86e+15 3.78e+15 5.94e+15 5.4e+15 8.1e+15 8.1e+15 5.94e+15 7.02e+15 5.94e+15 9.18e+15 9.18e+15 8.64e+15 8.64e+15 9.72e+15 1.026e+16 8.1e+15 9.18e+15 8.1e+15 1.242e+16 1.026e+16 9.72e+15 1.296e+16 1.242e+16 1.026e+16 9.72e+15 1.188e+16 1.404e+16 1.296e+16 1.026e+16 1.08e+16 1.35e+16 1.026e+16 9.18e+15 1.026e+16 1.296e+16 1.728e+16 1.242e+16 9.18e+15 8.1e+15 1.188e+16 1.512e+16 1.512e+16 1.458e+16 1.188e+16 1.296e+16 1.296e+16 1.512e+16 1.674e+16 1.458e+16 1.296e+16 1.242e+16 1.134e+16 8.64e+15 1.134e+16 9.72e+15 8.64e+15 7.56e+15 5.94e+15 9.18e+15 7.02e+15 4.86e+15 5.94e+15 8.1e+15 8.64e+15 5.4e+15 2.7e+15 4.32e+15 7.56e+15 7.02e+15 5.4e+15 3.24e+15 4.86e+15 6.48e+15 5.4e+15 3.24e+15 3.24e+15 4.32e+15 5.4e+15 5.4e+15 1.08e+15 4.32e+15 7.56e+15 1.134e+16 1.107e+16 9.99e+15 9.45e+15 9.18e+15 7.29e+15 1.053e+16 9.18e+15 8.1e+15 9.45e+15 9.18e+15 9.18e+15 8.1e+15 5.67e+15 7.83e+15 9.18e+15 5.67e+15 5.13e+15 5.13e+15 6.21e+15 6.21e+15 4.59e+15 2.43e+15 5.4e+15 7.02e+15 7.29e+15 1.242e+16 1.269e+16 1.431e+16 1.404e+16 9.18e+15 9.72e+15 1.134e+16 1.296e+16 1.539e+16 1.269e+16 9.18e+15 9.45e+15 8.91e+15 1.215e+16 1.269e+16 8.1e+15 8.37e+15 8.91e+15 8.91e+15 6.75e+15 6.75e+15 5.4e+15 7.56e+15 7.02e+15 5.13e+15 1.134e+16 1.188e+16 1.701e+16 1.998e+16 1.512e+16 7.56e+15 9.18e+15 1.755e+16 2.268e+16 1.485e+16 5.67e+15 7.83e+15 1.296e+16 1.674e+16 1.431e+16 8.37e+15 8.91e+15 1.107e+16 9.99e+15 9.45e+15 7.56e+15 5.67e+15 7.02e+15 5.94e+15 7.29e+15 9.18e+15 1.215e+16 2.214e+16 2.457e+16 1.728e+16 7.83e+15 1.134e+16 2.538e+16 2.916e+16 1.62e+16 8.1e+15 1.026e+16 1.701e+16 1.917e+16 1.323e+16 1.026e+16 9.72e+15 1.134e+16 1.08e+16 1.053e+16 7.29e+15 7.29e+15 7.56e+15 5.67e+15 6.48e+15 8.91e+15 1.188e+16 1.917e+16 1.755e+16 1.269e+16 8.91e+15 1.188e+16 1.998e+16 2.16e+16 1.512e+16 1.215e+16 1.161e+16 1.377e+16 1.566e+16 1.188e+16 1.188e+16 1.08e+16 9.72e+15 1.026e+16 8.37e+15 7.56e+15 9.72e+15 9.45e+15 7.83e+15 7.02e+15 </DataArray>
<DataArray type="Float32" Name="potential" format="ascii">
0 0 0 0 0 0 0 0 0 0 0 0 0 0 0 0 0 0 0 0 0 0 0 0 0 0 0 0 0 0 0 0 0 0 0 0 0 0 0 0 0 0 0 0 0 0 0 0 0 0 0 0 0 0 0 0 0 0 0 0 0 0 0 0 0 0 0 0 0 0 0 0 0 0 0 0 0 0 0 0 0 0 0 0 0 0 0 0 0 0 0 0 0 0 0 0 0 0 0 0 0 0 0 0 0 0 0 0 0 0 0 0 0 0 0 0 0 0 0 0 0 0 0 0 0 0 0 0 0 0 0 0 0 0 0 0 0 0 0 0 0 0 0 0 0 0 0 0 0 0 0 0 0 0 0 0 0 0 0 0 0 0 0 0 0 0 0 0 0 0 0 0 0 0 0 0 0 0 0 0 0 0 0 0 0 0 0 0 0 0 0 0 0 0 0 0 0 0 0 0 0 0 0 0 0 0 0 0 0 0 0 0 0 0 0 0 0 0 0 0 0 0 0 0 0 0 0 0 0 0 0 0 0 0 0 0 0 0 0 0 0 0 0 0 0 0 0 0 0 0 0 0 0 0 0 0 0 0 0 0 0 0 0 0 0 0 0 0 0 0 0 0 0 0 0 0 0 0 0 0 0 0 0 0 0 0 0 0 0 0 0 0 0 0 0 0 0 0 0 0 0 0 0 0 0 0 0 0 0 0 0 0 0 0 0 0 0 0 0 0 0 0 0 0 0 0 0 0 0 0 0 0 0 0 0 0 0 0 0 0 0 0 0 </DataArray>
<DataArray type="Float32" Name="temperature" format="ascii">