<VTKFile type="UnstructuredGrid" version="0.1" byte_order="LittleEndian">
<UnstructuredGrid>
<Piece NumberOfPoints="343" NumberOfCells="216">
<Points>
<DataArray type="Float32" NumberOfComponents="3" format="ascii">
-0.05 -0.05 -0.05 0.05 -0.05 -0.05 0.05 0.05 -0.05 -0.05 0.05 -0.05 -0.05 -0.05 0.05 0.05 -0.05 0.05 0.05 0.05 0.05 -0.05 0.05 0.05 -0.0333333 -0.05 -0.05 -0.0166667 -0.05 -0.05 0 -0.05 -0.05 0.0166667 -0.05 -0.05 0.0333333 -0.05 -0.05 0.05 -0.0333333 -0.05 0.05 -0.0166667 -0.05 0.05 0 -0.05 0.05 0.0166667 -0.05 0.05 0.0333333 -0.05 0.0333333 0.05 -0.05 0.0166667 0.05 -0.05 0 0.05 -0.05 -0.0166667 0.05 -0.05 -0.0333333 0.05 -0.05 -0.05 0.0333333 -0.05 -0.05 0.0166667 -0.05 -0.05 0 -0.05 -0.05 -0.0166667 -0.05 -0.05 -0.0333333 -0.05 -0.0333333 -0.05 0.05 -0.0166667 -0.05 0.05 0 -0.05 0.05 0.0166667 -0.05 0.05 0.0333333 -0.05 0.05 0.05 -0.0333333 0.05 0.05 -0.0166667 0.05 0.05 0 0.05 0.05 0.0166667 0.05 0.05 0.0333333 0.05 0.0333333 0.05 0.05 0.0166667 0.05 0.05 0 0.05 0.05 -0.0166667 0.05 0.05 -0.0333333 0.05 0.05 -0.05 0.0333333 0.05 -0.05 0.0166667 0.05 -0.05 0 0.05 -0.05 -0.0166667 0.05 -0.05 -0.0333333 0.05 -0.05 -0.05 -0.0333333 -0.05 -0.05 -0.0166667 -0.05 -0.05 0 -0.05 -0.05 0.0166667 -0.05 -0.05 0.0333333 0.05 -0.05 -0.0333333 0.05 -0.05 -0.0166667 0.05 -0.05 0 0.05 -0.05 0.0166667 0.05 -0.05 0.0333333 0.05 0.05 -0.0333333 0.05 0.05 -0.0166667 0.05 0.05 0 0.05 0.05 0.0166667 0.05 0.05 0.0333333 -0.05 0.05 -0.0333333 -0.05 0.05 -0.0166667 -0.05 0.05 0 -0.05 0.05 0.0166667 -0.05 0.05 0.0333333 -0.0333333 0.0333333 -0.05 -0.0333333 0.0166667 -0.05 -0.0333333 -3.55271e-18 -0.05 -0.0333333 -0.0166667 -0.05 -0.0333333 -0.0333333 -0.05 -0.0166667 0.0333333 -0.05 -0.0166667 0.0166667 -0.05 -0.0166667 -7.10543e-18 -0.05 -0.0166667 -0.0166667 -0.05 -0.0166667 -0.0333333 -0.05 1.77636e-18 0.0333333 -0.05 5.32907e-18 0.0166667 -0.05 3.55271e-18 -1.77636e-18 -0.05 7.10543e-18 -0.0166667 -0.05 3.55271e-18 -0.0333333 -0.05 0.0166667 0.0333333 -0.05 0.0166667 0.0166667 -0.05 0.0166667 -7.10543e-18 -0.05 0.0166667 -0.0166667 -0.05 0.0166667 -0.0333333 -0.05 0.0333333 0.0333333 -0.05 0.0333333 0.0166667 -0.05 0.0333333 -1.77636e-18 -0.05 0.0333333 -0.0166667 -0.05 0.0333333 -0.0333333 -0.05 -0.0333333 -0.0333333 0.05 -0.0333333 -0.0166667 0.05 -0.0333333 0 0.05 -0.0333333 0.0166667 0.05 -0.0333333 0.0333333 0.05 -0.0166667 -0.0333333 0.05 -0.0166667 -0.0166667 0.05 -0.0166667 0 0.05 -0.0166667 0.0166667 0.05 -0.0166667 0.0333333 0.05 0 -0.0333333 0.05 0 -0.0166667 0.05 0 0 0.05 0 0.0166667 0.05 0 0.0333333 0.05 0.0166667 -0.0333333 0.05 0.0166667 -0.0166667 0.05 0.0166667 0 0.05 0.0166667 0.0166667 0.05 0.0166667 0.0333333 0.05 0.0333333 -0.0333333 0.05 0.0333333 -0.0166667 0.05 0.0333333 1.77636e-18 0.05 0.0333333 0.0166667 0.05 0.0333333 0.0333333 0.05 -0.0333333 -0.05 -0.0333333 -0.0333333 -0.05 -0.0166667 -0.0333333 -0.05 0 -0.0333333 -0.05 0.0166667 -0.0333333 -0.05 0.0333333 -0.0166667 -0.05 -0.0333333 -0.0166667 -0.05 -0.0166667 -0.0166667 -0.05 0 -0.0166667 -0.05 0.0166667 -0.0166667 -0.05 0.0333333 0 -0.05 -0.0333333 0 -0.05 -0.0166667 0 -0.05 0 0 -0.05 0.0166667 0 -0.05 0.0333333 0.0166667 -0.05 -0.0333333 0.0166667 -0.05 -0.0166667 0.0166667 -0.05 0 0.0166667 -0.05 0.0166667 0.0166667 -0.05 0.0333333 0.0333333 -0.05 -0.0333333 0.0333333 -0.05 -0.0166667 0.0333333 -0.05 1.77636e-18 0.0333333 -0.05 0.0166667 0.0333333 -0.05 0.0333333 0.05 -0.0333333 -0.0333333 0.05 -0.0333333 -0.0166667 0.05 -0.0333333 0 0.05 -0.0333333 0.0166667 0.05 -0.0333333 0.0333333 0.05 -0.0166667 -0.0333333 0.05 -0.0166667 -0.0166667 0.05 -0.0166667 0 0.05 -0.0166667 0.0166667 0.05 -0.0166667 0.0333333 0.05 0 -0.0333333 0.05 0 -0.0166667 0.05 0 0 0.05 0 0.0166667 0.05 0 0.0333333 0.05 0.0166667 -0.0333333 0.05 0.0166667 -0.0166667 0.05 0.0166667 0 0.05 0.0166667 0.0166667 0.05 0.0166667 0.0333333 0.05 0.0333333 -0.0333333 0.05 0.0333333 -0.0166667 0.05 0.0333333 1.77636e-18 0.05 0.0333333 0.0166667 0.05 0.0333333 0.0333333 0.0333333 0.05 -0.0333333 0.0333333 0.05 -0.0166667 0.0333333 0.05 0 0.0333333 0.05 0.0166667 0.0333333 0.05 0.0333333 0.0166667 0.05 -0.0333333 0.0166667 0.05 -0.0166667 0.0166667 0.05 0 0.0166667 0.05 0.0166667 0.0166667 0.05 0.0333333 0 0.05 -0.0333333 0 0.05 -0.0166667 0 0.05 0 0 0.05 0.0166667 0 0.05 0.0333333 -0.0166667 0.05 -0.0333333 -0.0166667 0.05 -0.0166667 -0.0166667 0.05 0 -0.0166667 0.05 0.0166667 -0.0166667 0.05 0.0333333 -0.0333333 0.05 -0.0333333 -0.0333333 0.05 -0.0166667 -0.0333333 0.05 1.77636e-18 -0.0333333 0.05 0.0166667 -0.0333333 0.05 0.0333333 -0.05 0.0333333 -0.0333333 -0.05 0.0333333 -0.0166667 -0.05 0.0333333 0 -0.05 0.0333333 0.0166667 -0.05 0.0333333 0.0333333 -0.05 0.0166667 -0.0333333 -0.05 0.0166667 -0.0166667 -0.05 0.0166667 0 -0.05 0.0166667 0.0166667 -0.05 0.0166667 0.0333333 -0.05 0 -0.0333333 -0.05 0 -0.0166667 -0.05 0 0 -0.05 0 0.0166667 -0.05 0 0.0333333 -0.05 -0.0166667 -0.0333333 -0.05 -0.0166667 -0.0166667 -0.05 -0.0166667 0 -0.05 -0.0166667 0.0166667 -0.05 -0.0166667 0.0333333 -0.05 -0.0333333 -0.0333333 -0.05 -0.0333333 -0.0166667 -0.05 -0.0333333 1.77636e-18 -0.05 -0.0333333 0.0166667 -0.05 -0.0333333 0.0333333 -0.0333333 0.0333333 -0.0333333 -0.0333333 0.0333333 -0.0166667 -0.0333333 0.0333333 4.44089e-19 -0.0333333 0.0333333 0.0166667 -0.0333333 0.0333333 0.0333333 -0.0333333 0.0166667 -0.0333333 -0.0333333 0.0166667 -0.0166667 -0.0333333 0.0166667 -4.44089e-18 -0.0333333 0.0166667 0.0166667 -0.0333333 0.0166667 0.0333333 -0.0333333 -6.66134e-18 -0.0333333 -0.0333333 -9.76996e-18 -0.0166667 -0.0333333 -1.77636e-18 -1.77636e-18 -0.0333333 -1.77636e-18 0.0166667 -0.0333333 3.55271e-18 0.0333333 -0.0333333 -0.0166667 -0.0333333 -0.0333333 -0.0166667 -0.0166667 -0.0333333 -0.0166667 1.77636e-18 -0.0333333 -0.0166667 0.0166667 -0.0333333 -0.0166667 0.0333333 -0.0333333 -0.0333333 -0.0333333 -0.0333333 -0.0333333 -0.0166667 -0.0333333 -0.0333333 0 -0.0333333 -0.0333333 0.0166667 -0.0333333 -0.0333333 0.0333333 -0.0166667 0.0333333 -0.0333333 -0.0166667 0.0333333 -0.0166667 -0.0166667 0.0333333 2.66454e-18 -0.0166667 0.0333333 0.0166667 -0.0166667 0.0333333 0.0333333 -0.0166667 0.0166667 -0.0333333 -0.0166667 0.0166667 -0.0166667 -0.0166667 0.0166667 -1.77636e-18 -0.0166667 0.0166667 0.0166667 -0.0166667 0.0166667 0.0333333 -0.0166667 -1.06581e-17 -0.0333333 -0.0166667 -1.15463e-17 -0.0166667 -0.0166667 -3.55271e-18 0 -0.0166667 -8.88178e-18 0.0166667 -0.0166667 -1.77636e-18 0.0333333 -0.0166667 -0.0166667 -0.0333333 -0.0166667 -0.0166667 -0.0166667 -0.0166667 -0.0166667 3.55271e-18 -0.0166667 -0.0166667 0.0166667 -0.0166667 -0.0166667 0.0333333 -0.0166667 -0.0333333 -0.0333333 -0.0166667 -0.0333333 -0.0166667 -0.0166667 -0.0333333 0 -0.0166667 -0.0333333 0.0166667 -0.0166667 -0.0333333 0.0333333 3.44169e-18 0.0333333 -0.0333333 1.02141e-17 0.0333333 -0.0166667 2.66454e-18 0.0333333 -8.88178e-19 6.21725e-18 0.0333333 0.0166667 1.33227e-18 0.0333333 0.0333333 7.99361e-18 0.0166667 -0.0333333 8.43769e-18 0.0166667 -0.0166667 8.88178e-19 0.0166667 8.88178e-19 7.99361e-18 0.0166667 0.0166667 3.55271e-18 0.0166667 0.0333333 3.55271e-18 -1.77636e-18 -0.0333333 9.76996e-18 -9.76996e-18 -0.0166667 0 -8.88178e-19 -8.88178e-19 8.88178e-18 -8.88178e-18 0.0166667 1.77636e-18 -1.77636e-18 0.0333333 1.02141e-17 -0.0166667 -0.0333333 1.24345e-17 -0.0166667 -0.0166667 3.55271e-18 -0.0166667 -1.77636e-18 8.88178e-18 -0.0166667 0.0166667 3.55271e-18 -0.0166667 0.0333333 5.77316e-18 -0.0333333 -0.0333333 4.44089e-18 -0.0333333 -0.0166667 1.77636e-18 -0.0333333 1.77636e-18 5.32907e-18 -0.0333333 0.0166667 0 -0.0333333 0.0333333 0.0166667 0.0333333 -0.0333333 0.0166667 0.0333333 -0.0166667 0.0166667 0.0333333 -2.66454e-18 0.0166667 0.0333333 0.0166667 0.0166667 0.0333333 0.0333333 0.0166667 0.0166667 -0.0333333 0.0166667 0.0166667 -0.0166667 0.0166667 0.0166667 3.10862e-18 0.0166667 0.0166667 0.0166667 0.0166667 0.0166667 0.0333333 0.0166667 -1.24345e-17 -0.0333333 0.0166667 -1.37668e-17 -0.0166667 0.0166667 -3.55271e-18 -1.77636e-18 0.0166667 -6.21725e-18 0.0166667 0.0166667 -8.88178e-19 0.0333333 0.0166667 -0.0166667 -0.0333333 0.0166667 -0.0166667 -0.0166667 0.0166667 -0.0166667 2.66454e-18 0.0166667 -0.0166667 0.0166667 0.0166667 -0.0166667 0.0333333 0.0166667 -0.0333333 -0.0333333 0.0166667 -0.0333333 -0.0166667 0.0166667 -0.0333333 0 0.0166667 -0.0333333 0.0166667 0.0166667 -0.0333333 0.0333333 0.0333333 0.0333333 -0.0333333 0.0333333 0.0333333 -0.0166667 0.0333333 0.0333333 3.33067e-19 0.0333333 0.0333333 0.0166667 0.0333333 0.0333333 0.0333333 0.0333333 0.0166667 -0.0333333 0.0333333 0.0166667 -0.0166667 0.0333333 0.0166667 1.11022e-18 0.0333333 0.0166667 0.0166667 0.0333333 0.0166667 0.0333333 0.0333333 -4.44089e-18 -0.0333333 0.0333333 -4.21885e-18 -0.0166667 0.0333333 8.88178e-19 8.88178e-19 0.0333333 -1.33227e-18 0.0166667 0.0333333 3.55271e-18 0.0333333 0.0333333 -0.0166667 -0.0333333 0.0333333 -0.0166667 -0.0166667 0.0333333 -0.0166667 2.22045e-18 0.0333333 -0.0166667 0.0166667 0.0333333 -0.0166667 0.0333333 0.0333333 -0.0333333 -0.0333333 0.0333333 -0.0333333 -0.0166667 0.0333333 -0.0333333 2.22045e-18 0.0333333 -0.0333333 0.0166667 0.0333333 -0.0333333 0.0333333 </DataArray>
</Points>
<Cells>
<DataArray type="Int32" Name="connectivity" format="ascii">
68 22 3 23 218 188 63 193 218 188 63 193 219 189 64 194 219 189 64 194 220 190 65 195 220 190 65 195 221 191 66 196 221 191 66 196 222 192 67 197 222 192 67 197 97 42 7 43 69 68 23 24 223 218 193 198 223 218 193 198 224 219 194 199 224 219 194 199 225 220 195 200 225 220 195 200 226 221 196 201 226 221 196 201 227 222 197 202 227 222 197 202 96 97 43 44 70 69 24 25 228 223 198 203 228 223 198 203 229 224 199 204 229 224 199 204 230 225 200 205 230 225 200 205 231 226 201 206 231 226 201 206 232 227 202 207 232 227 202 207 95 96 44 45 71 70 25 26 233 228 203 208 233 228 203 208 234 229 204 209 234 229 204 209 235 230 205 210 235 230 205 210 236 231 206 211 236 231 206 211 237 232 207 212 237 232 207 212 94 95 45 46 72 71 26 27 238 233 208 213 238 233 208 213 239 234 209 214 239 234 209 214 240 235 210 215 240 235 210 215 241 236 211 216 241 236 211 216 242 237 212 217 242 237 212 217 93 94 46 47 8 72 27 0 118 238 213 48 118 238 213 48 119 239 214 49 119 239 214 49 120 240 215 50 120 240 215 50 121 241 216 51 121 241 216 51 122 242 217 52 122 242 217 52 28 93 47 4 73 21 22 68 243 183 188 218 243 183 188 218 244 184 189 219 244 184 189 219 245 185 190 220 245 185 190 220 246 186 191 221 246 186 191 221 247 187 192 222 247 187 192 222 102 41 42 97 74 73 68 69 248 243 218 223 248 243 218 223 249 244 219 224 249 244 219 224 250 245 220 225 250 245 220 225 251 246 221 226 251 246 221 226 252 247 222 227 252 247 222 227 101 102 97 96 75 74 69 70 253 248 223 228 253 248 223 228 254 249 224 229 254 249 224 229 255 250 225 230 255 250 225 230 256 251 226 231 256 251 226 231 257 252 227 232 257 252 227 232 100 101 96 95 76 75 70 71 258 253 228 233 258 253 228 233 259 254 229 234 259 254 229 234 260 255 230 235 260 255 230 235 261 256 231 236 261 256 231 236 262 257 232 237 262 257 232 237 99 100 95 94 77 76 71 72 263 258 233 238 263 258 233 238 264 259 234 239 264 259 234 239 265 260 235 240 265 260 235 240 266 261 236 241 266 261 236 241 267 262 237 242 267 262 237 242 98 99 94 93 9 77 72 8 123 263 238 118 123 263 238 118 124 264 239 119 124 264 239 119 125 265 240 120 125 265 240 120 126 266 241 121 126 266 241 121 127 267 242 122 127 267 242 122 29 98 93 28 78 20 21 73 268 178 183 243 268 178 183 243 269 179 184 244 269 179 184 244 270 180 185 245 270 180 185 245 271 181 186 246 271 181 186 246 272 182 187 247 272 182 187 247 107 40 41 102 79 78 73 74 273 268 243 248 273 268 243 248 274 269 244 249 274 269 244 249 275 270 245 250 275 270 245 250 276 271 246 251 276 271 246 251 277 272 247 252 277 272 247 252 106 107 102 101 80 79 74 75 278 273 248 253 278 273 248 253 279 274 249 254 279 274 249 254 280 275 250 255 280 275 250 255 281 276 251 256 281 276 251 256 282 277 252 257 282 277 252 257 105 106 101 100 81 80 75 76 283 278 253 258 283 278 253 258 284 279 254 259 284 279 254 259 285 280 255 260 285 280 255 260 286 281 256 261 286 281 256 261 287 282 257 262 287 282 257 262 104 105 100 99 82 81 76 77 288 283 258 263 288 283 258 263 289 284 259 264 289 284 259 264 290 285 260 265 290 285 260 265 291 286 261 266 291 286 261 266 292 287 262 267 292 287 262 267 103 104 99 98 10 82 77 9 128 288 263 123 128 288 263 123 129 289 264 124 129 289 264 124 130 290 265 125 130 290 265 125 131 291 266 126 131 291 266 126 132 292 267 127 132 292 267 127 30 103 98 29 83 19 20 78 293 173 178 268 293 173 178 268 294 174 179 269 294 174 179 269 295 175 180 270 295 175 180 270 296 176 181 271 296 176 181 271 297 177 182 272 297 177 182 272 112 39 40 107 84 83 78 79 298 293 268 273 298 293 268 273 299 294 269 274 299 294 269 274 300 295 270 275 300 295 270 275 301 296 271 276 301 296 271 276 302 297 272 277 302 297 272 277 111 112 107 106 85 84 79 80 303 298 273 278 303 298 273 278 304 299 274 279 304 299 274 279 305 300 275 280 305 300 275 280 306 301 276 281 306 301 276 281 307 302 277 282 307 302 277 282 110 111 106 105 86 85 80 81 308 303 278 283 308 303 278 283 309 304 279 284 309 304 279 284 310 305 280 285 310 305 280 285 311 306 281 286 311 306 281 286 312 307 282 287 312 307 282 287 109 110 105 104 87 86 81 82 313 308 283 288 313 308 283 288 314 309 284 289 314 309 284 289 315 310 285 290 315 310 285 290 316 311 286 291 316 311 286 291 317 312 287 292 317 312 287 292 108 109 104 103 11 87 82 10 133 313 288 128 133 313 288 128 134 314 289 129 134 314 289 129 135 315 290 130 135 315 290 130 136 316 291 131 136 316 291 131 137 317 292 132 137 317 292 132 31 108 103 30 88 18 19 83 318 168 173 293 318 168 173 293 319 169 174 294 319 169 174 294 320 170 175 295 320 170 175 295 321 171 176 296 321 171 176 296 322 172 177 297 322 172 177 297 117 38 39 112 89 88 83 84 323 318 293 298 323 318 293 298 324 319 294 299 324 319 294 299 325 320 295 300 325 320 295 300 326 321 296 301 326 321 296 301 327 322 297 302 327 322 297 302 116 117 112 111 90 89 84 85 328 323 298 303 328 323 298 303 329 324 299 304 329 324 299 304 330 325 300 305 330 325 300 305 331 326 301 306 331 326 301 306 332 327 302 307 332 327 302 307 115 116 111 110 91 90 85 86 333 328 303 308 333 328 303 308 334 329 304 309 334 329 304 309 335 330 305 310 335 330 305 310 336 331 306 311 336 331 306 311 337 332 307 312 337 332 307 312 114 115 110 109 92 91 86 87 338 333 308 313 338 333 308 313 339 334 309 314 339 334 309 314 340 335 310 315 340 335 310 315 341 336 311 316 341 336 311 316 342 337 312 317 342 337 312 317 113 114 109 108 12 92 87 11 138 338 313 133 138 338 313 133 139 339 314 134 139 339 314 134 140 340 315 135 140 340 315 135 141 341 316 136 141 341 316 136 142 342 317 137 142 342 317 137 32 113 108 31 17 2 18 88 163 58 168 318 163 58 168 318 164 59 169 319 164 59 169 319 165 60 170 320 165 60 170 320 166 61 171 321 166 61 171 321 167 62 172 322 167 62 172 322 37 6 38 117 16 17 88 89 158 163 318 323 158 163 318 323 159 164 319 324 159 164 319 324 160 165 320 325 160 165 320 325 161 166 321 326 161 166 321 326 162 167 322 327 162 167 322 327 36 37 117 116 15 16 89 90 153 158 323 328 153 158 323 328 154 159 324 329 154 159 324 329 155 160 325 330 155 160 325 330 156 161 326 331 156 161 326 331 157 162 327 332 157 162 327 332 35 36 116 115 14 15 90 91 148 153 328 333 148 153 328 333 149 154 329 334 149 154 329 334 150 155 330 335 150 155 330 335 151 156 331 336 151 156 331 336 152 157 332 337 152 157 332 337 34 35 115 114 13 14 91 92 143 148 333 338 143 148 333 338 144 149 334 339 144 149 334 339 145 150 335 340 145 150 335 340 146 151 336 341 146 151 336 341 147 152 337 342 147 152 337 342 33 34 114 113 1 13 92 12 53 143 338 138 53 143 338 138 54 144 339 139 54 144 339 139 55 145 340 140 55 145 340 140 56 146 341 141 56 146 341 141 57 147 342 142 57 147 342 142 5 33 113 32 </DataArray>
<DataArray type="Int32" Name="offsets" format="ascii">
8 16 24 32 40 48 56 64 72 80 88 96 104 112 120 128 136 144 152 160 168 176 184 192 200 208 216 224 232 240 248 256 264 272 280 288 296 304 312 320 328 336 344 352 360 368 376 384 392 400 408 416 424 432 440 448 456 464 472 480 488 496 504 512 520 528 536 544 552 560 568 576 584 592 600 608 616 624 632 640 648 656 664 672 680 688 696 704 712 720 728 736 744 752 760 768 776 784 792 800 808 816 824 832 840 848 856 864 872 880 888 896 904 912 920 928 936 944 952 960 968 976 984 992 1000 1008 1016 1024 1032 1040 1048 1056 1064 1072 1080 1088 1096 1104 1112 1120 1128 1136 1144 1152 1160 1168 1176 1184 1192 1200 1208 1216 1224 1232 1240 1248 1256 1264 1272 1280 1288 1296 1304 1312 1320 1328 1336 1344 1352 1360 1368 1376 1384 1392 1400 1408 1416 1424 1432 1440 1448 1456 1464 1472 1480 1488 1496 1504 1512 1520 1528 1536 1544 1552 1560 1568 1576 1584 1592 1600 1608 1616 1624 1632 1640 1648 1656 1664 1672 1680 1688 1696 1704 1712 1720 1728 </DataArray>
<DataArray type="UInt8" Name="types" format="ascii">
12 12 12 12 12 12 12 12 12 12 12 12 12 12 12 12 12 12 12 12 12 12 12 12 12 12 12 12 12 12 12 12 12 12 12 12 12 12 12 12 12 12 12 12 12 12 12 12 12 12 12 12 12 12 12 12 12 12 12 12 12 12 12 12 12 12 12 12 12 12 12 12 12 12 12 12 12 12 12 12 12 12 12 12 12 12 12 12 12 12 12 12 12 12 12 12 12 12 12 12 12 12 12 12 12 12 12 12 12 12 12 12 12 12 12 12 12 12 12 12 12 12 12 12 12 12 12 12 12 12 12 12 12 12 12 12 12 12 12 12 12 12 12 12 12 12 12 12 12 12 12 12 12 12 12 12 12 12 12 12 12 12 12 12 12 12 12 12 12 12 12 12 12 12 12 12 12 12 12 12 12 12 12 12 12 12 12 12 12 12 12 12 12 12 12 12 12 12 12 12 12 12 12 12 12 12 12 12 12 12 12 12 12 12 12 12 </DataArray>
</Cells>
<CellData Scalars="scalars">
<DataArray type="Float32" Name="number_density" format="ascii">
1.08e+16 8.64e+15 8.64e+15 1.08e+16 6.48e+15 1.08e+16 1.296e+16 1.944e+16 1.08e+16 6.48e+15 8.64e+15 1.08e+16 1.944e+16 1.08e+16 1.512e+16 1.08e+16 8.64e+15 4.32e+15 1.08e+16 8.64e+15 2.16e+15 2.16e+15 2.16e+16 2.16e+15 4.32e+15 4.32e+15 8.64e+15 1.728e+16 8.64e+15 1.08e+16 1.728e+16 2.16e+15 4.32e+15 1.512e+16 1.512e+16 1.944e+16 1.08e+16 1.08e+16 1.08e+16 8.64e+15 6.48e+15 6.48e+15 1.08e+16 1.08e+16 1.08e+16 8.64e+15 8.64e+15 6.48e+15 1.08e+16 1.944e+16 1.08e+16 1.728e+16 1.512e+16 1.08e+16 1.512e+16 2.16e+15 1.512e+16 1.08e+16 1.512e+16 1.728e+16 1.728e+16 2.16e+15 1.08e+16 4.32e+15 6.48e+15 4.32e+15 1.296e+16 6.48e+15 2.16e+15 6.48e+15 8.64e+15 4.32e+15 1.944e+16 8.64e+15 2.16e+15 8.64e+15 6.48e+15 1.728e+16 1.08e+16 8.64e+15 1.944e+16 8.64e+15 8.64e+15 8.64e+15 1.728e+16 8.64e+15 8.64e+15 8.64e+15 8.64e+15 1.512e+16 1.728e+16 4.32e+15 1.296e+16 1.512e+16 8.64e+15 1.08e+16 1.08e+16 8.64e+15 6.48e+15 8.64e+15 2.16e+15 6.48e+15 1.512e+16 8.64e+15 4.32e+15 1.944e+16 2.16e+15 1.728e+16 6.48e+15 1.08e+16 1.512e+16 6.48e+15 2.16e+16 8.64e+15 1.296e+16 8.64e+15 1.296e+16 1.512e+16 1.512e+16 1.296e+16 8.64e+15 4.32e+15 1.512e+16 1.512e+16 6.48e+15 2.16e+15 6.48e+15 4.32e+15 8.64e+15 4.32e+15 1.512e+16 8.64e+15 1.728e+16 6.48e+15 0 6.48e+15 1.08e+16 6.48e+15 2.16e+15 6.48e+15 1.296e+16 1.08e+16 2.16e+15 1.512e+16 1.512e+16 8.64e+15 1.08e+16 1.512e+16 8.64e+15 1.08e+16 1.296e+16 2.16e+15 4.32e+15 1.512e+16 6.48e+15 1.728e+16 8.64e+15 8.64e+15 8.64e+15 8.64e+15 1.296e+16 2.16e+15 8.64e+15 1.08e+16 2.376e+16 1.728e+16 6.48e+15 6.48e+15 1.944e+16 1.296e+16 1.08e+16 4.32e+15 4.32e+15 1.944e+16 8.64e+15 6.48e+15 1.08e+16 1.08e+16 4.32e+15 8.64e+15 1.296e+16 4.32e+15 1.728e+16 8.64e+15 4.32e+15 1.296e+16 2.16e+15 1.296e+16 4.32e+15 6.48e+15 1.08e+16 1.296e+16 6.48e+15 1.296e+16 1.08e+16 1.296e+16 1.944e+16 8.64e+15 1.296e+16 8.64e+15 8.64e+15 8.64e+15 6.48e+15 4.32e+15 1.728e+16 6.48e+15 1.08e+16 1.296e+16 1.296e+16 4.32e+15 6.48e+15 6.48e+15 8.64e+15 8.64e+15 8.64e+15 1.08e+16 </DataArray>
<DataArray type="Float32" Name="potential" format="ascii">
0 0 0 0 0 0 0 0 0 0 0 0 0 0 0 0 0 0 0 0 0 0 0 0 0 0 0 0 0 0 0 0 0 0 0 0 0 0 0 0 0 0 0 0 0 0 0 0 0 0 0 0 0 0 0 0 0 0 0 0 0 0 0 0 0 0 0 0 0 0 0 0 0 0 0 0 0 0 0 0 0 0 0 0 0 0 0 0 0 0 0 0 0 0 0 0 0 0 0 0 0 0 0 0 0 0 0 0 0 0 0 0 0 0 0 0 0 0 0 0 0 0 0 0 0 0 0 0 0 0 0 0 0 0 0 0 0 0 0 0 0 0 0 0 0 0 0 0 0 0 0 0 0 0 0 0 0 0 0 0 0 0 0 0 0 0 0 0 0 0 0 0 0 0 0 0 0 0 0 0 0 0 0 0 0 0 0 0 0 0 0 0 0 0 0 0 0 0 0 0 0 0 0 0 0 0 0 0 0 0 0 0 0 0 0 0 </DataArray>
<DataArray type="Float32" Name="temperature" format="ascii">
199.045 193.209 100.145 413.789 251.785 368.956 246.167 346.742 396.121 257.748 260.982 157.266 399.92 336.445 161.136 277.542 125.527 70.6393 278.12 201.786 1e-15 1e-15 276.774 1e-15 126.82 8.78576 126.48 326.014 295.368 140.302 216.234 1e-15 78.0598 227.254 360.679 252.513 134.265 224.292 231.358 179.866 117.99 281.332 249.169 140.698 428.535 256.542 182.284 449.096 393.272 218.793 316.151 152.777 393.438 148.295 313.792 1e-15 241.791 70.4165 249.546 422.488 351.218 9.93295e-14 161.351 113.931 306.498 244.11 333.618 244.972 2.39599e-14 117.202 288.663 58.6163 291.039 215.922 2.39599e-14 283.186 365.415 214.311 127.982 346.17 275.453 171.1 205.604 260.696 244.194 170.87 171.017 598.628 265.288 276.099 281.999 82.8128 393.682 264.393 376.709 261.168 188.099 106.46 591.323 175.774 9.38395e-14 54.1095 293.989 277.566 395.7 271.652 1e-15 262.727 117.14 349.055 283.972 115.006 353.451 502.59 328.992 171.719 508.658 310.965 206.39 393.928 105.237 160.493 343.455 420.139 88.0481 1e-15 150.921 224.693 313.172 220.667 276.418 122.919 280.18 552.222 0 239.348 99.0149 449.662 3.52731e-14 122.636 229.361 336.551 1e-15 264.924 171.646 171.613 222.889 185.775 245.359 276.359 377.991 2.39599e-14 81.018 601.709 185.441 206.55 401.424 219.143 389.89 149.83 440.265 2.39599e-14 419.83 188.417 343.378 320.202 403.853 200.582 183.14 230.989 420.782 226.955 660.22 279.37 177.237 279.303 279.962 281.59 161.761 191.223 245.702 174.688 185.162 550.505 45.5154 228.765 1e-15 198.591 38.1731 147.5 264.242 274.069 241.031 493.141 472.022 239.027 297.048 387.184 209.937 96.9687 224.395 243.498 100.303 188.061 415.991 225.423 181.289 425.311 275.163 84.8857 150.982 332.74 328.703 192.962 147.699 162.082 </DataArray>
<DataArray type="Float32" Name="velocity" format="ascii">
83.5542 194.202 254.034 165.106 217.841 228.038 257.741 175.1 472.508 360.763 347.733 280.299 230.597 311.573 302.211 508.92 87.8428 333.056 33.1098 343.285 453.109 972.759 389.005 297.829 108.378 351.867 389.03 178.355 241.428 251.043 89.9178 228.72 500.357 180.483 182.652 61.6424 233.855 146.789 287.03 133.23 347.523 196.992 113.583 311.824 301.653 386.617 212.343 221.017 408.076 452.654 437.339 607.96 277.971 102.807 93.5157 407.561 587.387 651.716 212.158 263.288 399.867 577.874 456.245 155.643 499.61 320.04 122.077 537.296 405.034 602.226 174.348 212.958 149.594 347.885 518.715 96.3301 231.641 106.495 511.636 574.08 505.843 252.18 376.988 343.919 342.376 700.086 837.944 698.041 513.222 300.367 454.196 614.817 742.927 819.673 451.815 340.072 361.384 414.292 78.0799 517.083 746.527 276.831 267.084 322.892 468.278 205.92 542.297 128.336 205.524 243.866 64.4525 182.669 59.6945 171.477 370.12 483.799 395.716 361.67 297.663 202.921 419.055 652.379 767.3 486.501 739.821 520.81 582.51 717.196 677.166 600.861 449.172 140.85 238.87 418.072 0 378.568 306.781 578.263 437.735 113.012 260.778 379.968 245.943 211.371 244.97 182.801 421.375 154.17 189.177 314.118 213.982 569.087 267.944 158.32 83.2516 122.515 219.592 358.401 418.56 370.41 217.969 392.794 350.962 284.824 313.121 338.965 367.153 278.99 227.529 244.8 350.15 226.354 385.444 163.172 175.967 341.108 210.221 195.554 410.983 318.414 166.727 270.65 31.5912 144.995 210.056 159.561 430.295 63.0492 237.547 78.0637 161.091 334.106 260.219 157.032 203.069 126.691 75.7606 236.896 146.017 336.124 399.251 256.651 295.977 347.359 52.7002 295.035 177.509 317.994 259.699 554.606 136.152 435.514 197.477 303.857 218.413 102.165 </DataArray>
<DataArray type="Float32" Name="E_field" format="ascii">
0 0 0 0 0 0 0 0 0 0 0 0 0 0 0 0 0 0 0 0 0 0 0 0 0 0 0 0 0 0 0 0 0 0 0 0 0 0 0 0 0 0 0 0 0 0 0 0 0 0 0 0 0 0 0 0 0 0 0 0 0 0 0 0 0 0 0 0 0 0 0 0 0 0 0 0 0 0 0 0 0 0 0 0 0 0 0 0 0 0 0 0 0 0 0 0 0 0 0 0 0 0 0 0 0 0 0 0 0 0 0 0 0 0 0 0 0 0 0 0 0 0 0 0 0 0 0 0 0 0 0 0 0 0 0 0 0 0 0 0 0 0 0 0 0 0 0 0 0 0 0 0 0 0 0 0 0 0 0 0 0 0 0 0 0 0 0 0 0 0 0 0 0 0 0 0 0 0 0 0 0 0 0 0 0 0 0 0 0 0 0 0 0 0 0 0 0 0 0 0 0 0 0 0 0 0 0 0 0 0 0 0 0 0 0 0 </DataArray>
</CellData>
<PointData Scalars="number_density">
<DataArray type="Float32" Name="number_density" format="ascii">
1.728e+16 6.48e+15 1.296e+16 1.08e+16 1.944e+16 1.08e+16 1.296e+16 1.08e+16 1.512e+16 1.404e+16 8.64e+15 5.4e+15 7.56e+15 1.188e+16 1.512e+16 9.72e+15 4.32e+15 7.56e+15 1.404e+16 1.08e+16 1.296e+16 1.512e+16 1.08e+16 1.188e+16 1.62e+16 1.512e+16 7.56e+15 1.08e+16 1.188e+16 1.08e+16 1.62e+16 1.188e+16 9.72e+15 7.56e+15 4.32e+15 6.48e+15 1.08e+16 1.296e+16 1.188e+16 9.72e+15 1.296e+16 1.188e+16 8.64e+15 1.08e+16 7.56e+15 3.24e+15 6.48e+15 1.512e+16 9.72e+15 3.24e+15 9.72e+15 1.512e+16 1.728e+16 6.48e+15 7.56e+15 8.64e+15 8.64e+15 9.72e+15 8.64e+15 1.08e+16 1.296e+16 6.48e+15 8.64e+15 9.72e+15 8.64e+15 9.72e+15 8.64e+15 8.64e+15 1.134e+16 1.35e+16 1.404e+16 1.188e+16 1.296e+16 1.296e+16 1.242e+16 1.512e+16 1.512e+16 1.404e+16 1.242e+16 1.242e+16 1.242e+16 1.296e+16 1.134e+16 1.188e+16 1.08e+16 8.1e+15 1.296e+16 1.188e+16 1.08e+16 7.56e+15 9.18e+15 1.458e+16 1.296e+16 9.72e+15 8.64e+15 8.64e+15 8.1e+15 8.64e+15 8.1e+15 9.72e+15 1.35e+16 1.026e+16 9.72e+15 1.134e+16 8.1e+15 9.18e+15 9.72e+15 1.188e+16 1.242e+16 1.026e+16 4.86e+15 8.64e+15 1.242e+16 1.08e+16 8.64e+15 5.4e+15 1.026e+16 1.35e+16 9.72e+15 3.78e+15 7.02e+15 1.134e+16 1.188e+16 1.08e+16 5.4e+15 8.1e+15 9.18e+15 8.1e+15 8.1e+15 8.1e+15 1.188e+16 8.64e+15 9.18e+15 5.94e+15 9.18e+15 1.134e+16 7.02e+15 7.56e+15 7.02e+15 8.1e+15 9.72e+15 8.1e+15 8.1e+15 9.18e+15 8.1e+15 1.026e+16 1.08e+16 9.18e+15 1.134e+16 8.64e+15 1.026e+16 1.026e+16 7.02e+15 1.026e+16 1.026e+16 1.026e+16 1.188e+16 9.72e+15 8.64e+15 1.026e+16 8.64e+15 1.242e+16 1.296e+16 8.1e+15 9.72e+15 9.18e+15 7.56e+15 1.026e+16 1.026e+16 1.026e+16 1.296e+16 9.18e+15 9.18e+15 1.026e+16 1.134e+16 1.188e+16 1.296e+16 1.242e+16 1.134e+16 9.18e+15 8.1e+15 1.08e+16 1.35e+16 1.242e+16 8.1e+15 7.56e+15 7.56e+15 9.18e+15 1.026e+16 9.72e+15 9.72e+15 8.1e+15 7.56e+15 1.296e+16 1.188e+16 9.18e+15 8.1e+15 9.18e+15 1.566e+16 1.404e+16 1.08e+16 8.64e+15 8.1e+15 1.242e+16 9.18e+15 7.56e+15 1.08e+16 9.18e+15 7.02e+15 5.94e+15 7.56e+15 1.242e+16 1.08e+16 7.02e+15 4.86e+15 1.134e+16 1.404e+16 1.35e+16 1.188e+16 1.134e+16 9.45e+15 8.1e+15 8.1e+15 1.431e+16 1.35e+16 1.134e+16 1.053e+16 9.18e+15 1.215e+16 1.053e+16 1.053e+16 1.269e+16 1.188e+16 8.1e+15 6.75e+15 8.91e+15 1.08e+16 1.08e+16 8.37e+15 5.13e+15 8.64e+15 1.026e+16 9.72e+15 1.134e+16 1.026e+16 9.72e+15 8.1e+15 8.64e+15 1.215e+16 1.215e+16 1.161e+16 1.053e+16 1.026e+16 1.188e+16 1.026e+16 1.242e+16 1.242e+16 1.269e+16 9.72e+15 7.83e+15 1.053e+16 8.91e+15 8.91e+15 1.026e+16 6.21e+15 7.83e+15 7.29e+15 6.48e+15 1.08e+16 1.08e+16 1.107e+16 1.134e+16 1.242e+16 9.99e+15 1.08e+16 1.296e+16 1.08e+16 9.72e+15 8.91e+15 8.37e+15 1.107e+16 1.026e+16 9.45e+15 9.45e+15 6.48e+15 7.83e+15 8.91e+15 8.64e+15 9.45e+15 6.75e+15 8.64e+15 7.83e+15 7.83e+15 9.72e+15 9.18e+15 1.188e+16 1.296e+16 1.269e+16 8.37e+15 8.1e+15 1.188e+16 1.188e+16 9.45e+15 7.56e+15 1.053e+16 1.269e+16 1.08e+16 7.56e+15 1.08e+16 9.72e+15 9.45e+15 8.64e+15 9.72e+15 9.99e+15 8.37e+15 8.37e+15 6.75e+15 8.91e+15 8.91e+15 8.1e+15 1.026e+16 9.45e+15 1.053e+16 8.37e+15 8.1e+15 8.91e+15 1.161e+16 1.134e+16 9.72e+15 1.161e+16 1.242e+16 1.161e+16 8.37e+15 1.215e+16 1.161e+16 1.215e+16 9.18e+15 8.1e+15 1.053e+16 9.18e+15 9.72e+15 8.37e+15 9.18e+15 </DataArray>
<DataArray type="Float32" Name="potential" format="ascii">
0 0 0 0 0 0 0 0 0 0 0 0 0 0 0 0 0 0 0 0 0 0 0 0 0 0 0 0 0 0 0 0 0 0 0 0 0 0 0 0 0 0 0 0 0 0 0 0 0 0 0 0 0 0 0 0 0 0 0 0 0 0 0 0 0 0 0 0 0 0 0 0 0 0 0 0 0 0 0 0 0 0 0 0 0 0 0 0 0 0 0 0 0 0 0 0 0 0 0 0 0 0 0 0 0 0 0 0 0 0 0 0 0 0 0 0 0 0 0 0 0 0 0 0 0 0 0 0 0 0 0 0 0 0 0 0 0 0 0 0 0 0 0 0 0 0 0 0 0 0 0 0 0 0 0 0 0 0 0 0 0 0 0 0 0 0 0 0 0 0 0 0 0 0 0 0 0 0 0 0 0 0 0 0 0 0 0 0 0 0 0 0 0 0 0 0 0 0 0 0 0 0 0 0 0 0 0 0 0 0 0 0 0 0 0 0 0 0 0 0 0 0 0 0 0 0 0 0 0 0 0 0 0 0 0 0 0 0 0 0 0 0 0 0 0 0 0 0 0 0 0 0 0 0 0 0 0 0 0 0 0 0 0 0 0 0 0 0 0 0 0 0 0 0 0 0 0 0 0 0 0 0 0 0 0 0 0 0 0 0 0 0 0 0 0 0 0 0 0 0 0 0 0 0 0 0 0 0 0 0 0 0 0 0 0 0 0 0 0 0 0 0 0 0 0 0 0 0 0 0 0 0 0 0 0 0 0 0 0 0 0 0 0 </DataArray>
<DataArray type="Float32" Name="temperature" format="ascii">