<VTKFile type="UnstructuredGrid" version="0.1" byte_order="LittleEndian">
<UnstructuredGrid>
<Piece NumberOfPoints="343" NumberOfCells="216">
<Points>
<DataArray type="Float32" NumberOfComponents="3" format="ascii">
-0.05 -0.05 -0.05 0.05 -0.05 -0.05 0.05 0.05 -0.05 -0.05 0.05 -0.05 -0.05 -0.05 0.05 0.05 -0.05 0.05 0.05 0.05 0.05 -0.05 0.05 0.05 -0.0333333 -0.05 -0.05 -0.0166667 -0.05 -0.05 0 -0.05 -0.05 0.0166667 -0.05 -0.05 0.0333333 -0.05 -0.05 0.05 -0.0333333 -0.05 0.05 -0.0166667 -0.05 0.05 0 -0.05 0.05 0.0166667 -0.05 0.05 0.0333333 -0.05 0.0333333 0.05 -0.05 0.0166667 0.05 -0.05 0 0.05 -0.05 -0.0166667 0.05 -0.05 -0.0333333 0.05 -0.05 -0.05 0.0333333 -0.05 -0.05 0.0166667 -0.05 -0.05 0 -0.05 -0.05 -0.0166667 -0.05 -0.05 -0.0333333 -0.05 -0.0333333 -0.05 0.05 -0.0166667 -0.05 0.05 0 -0.05 0.05 0.0166667 -0.05 0.05 0.0333333 -0.05 0.05 0.05 -0.0333333 0.05 0.05 -0.0166667 0.05 0.05 0 0.05 0.05 0.0166667 0.05 0.05 0.0333333 0.05 0.0333333 0.05 0.05 0.0166667 0.05 0.05 0 0.05 0.05 -0.0166667 0.05 0.05 -0.0333333 0.05 0.05 -0.05 0.0333333 0.05 -0.05 0.0166667 0.05 -0.05 0 0.05 -0.05 -0.0166667 0.05 -0.05 -0.0333333 0.05 -0.05 -0.05 -0.0333333 -0.05 -0.05 -0.0166667 -0.05 -0.05 0 -0.05 -0.05 0.0166667 -0.05 -0.05 0.0333333 0.05 -0.05 -0.0333333 0.05 -0.05 -0.0166667 0.05 -0.05 0 0.05 -0.05 0.0166667 0.05 -0.05 0.0333333 0.05 0.05 -0.0333333 0.05 0.05 -0.0166667 0.05 0.05 0 0.05 0.05 0.0166667 0.05 0.05 0.0333333 -0.05 0.05 -0.0333333 -0.05 0.05 -0.0166667 -0.05 0.05 0 -0.05 0.05 0.0166667 -0.05 0.05 0.0333333 -0.0333333 0.0333333 -0.05 -0.0333333 0.0166667 -0.05 -0.0333333 -3.55271e-18 -0.05 -0.0333333 -0.0166667 -0.05 -0.0333333 -0.0333333 -0.05 -0.0166667 0.0333333 -0.05 -0.0166667 0.0166667 -0.05 -0.0166667 -7.10543e-18 -0.05 -0.0166667 -0.0166667 -0.05 -0.0166667 -0.0333333 -0.05 1.77636e-18 0.0333333 -0.05 5.32907e-18 0.0166667 -0.05 3.55271e-18 -1.77636e-18 -0.05 7.10543e-18 -0.0166667 -0.05 3.55271e-18 -0.0333333 -0.05 0.0166667 0.0333333 -0.05 0.0166667 0.0166667 -0.05 0.0166667 -7.10543e-18 -0.05 0.0166667 -0.0166667 -0.05 0.0166667 -0.0333333 -0.05 0.0333333 0.0333333 -0.05 0.0333333 0.0166667 -0.05 0.0333333 -1.77636e-18 -0.05 0.0333333 -0.0166667 -0.05 0.0333333 -0.0333333 -0.05 -0.0333333 -0.0333333 0.05 -0.0333333 -0.0166667 0.05 -0.0333333 0 0.05 -0.0333333 0.0166667 0.05 -0.0333333 0.0333333 0.05 -0.0166667 -0.0333333 0.05 -0.0166667 -0.0166667 0.05 -0.0166667 0 0.05 -0.0166667 0.0166667 0.05 -0.0166667 0.0333333 0.05 0 -0.0333333 0.05 0 -0.0166667 0.05 0 0 0.05 0 0.0166667 0.05 0 0.0333333 0.05 0.0166667 -0.0333333 0.05 0.0166667 -0.0166667 0.05 0.0166667 0 0.05 0.0166667 0.0166667 0.05 0.0166667 0.0333333 0.05 0.0333333 -0.0333333 0.05 0.0333333 -0.0166667 0.05 0.0333333 1.77636e-18 0.05 0.0333333 0.0166667 0.05 0.0333333 0.0333333 0.05 -0.0333333 -0.05 -0.0333333 -0.0333333 -0.05 -0.0166667 -0.0333333 -0.05 0 -0.0333333 -0.05 0.0166667 -0.0333333 -0.05 0.0333333 -0.0166667 -0.05 -0.0333333 -0.0166667 -0.05 -0.0166667 -0.0166667 -0.05 0 -0.0166667 -0.05 0.0166667 -0.0166667 -0.05 0.0333333 0 -0.05 -0.0333333 0 -0.05 -0.0166667 0 -0.05 0 0 -0.05 0.0166667 0 -0.05 0.0333333 0.0166667 -0.05 -0.0333333 0.0166667 -0.05 -0.0166667 0.0166667 -0.05 0 0.0166667 -0.05 0.0166667 0.0166667 -0.05 0.0333333 0.0333333 -0.05 -0.0333333 0.0333333 -0.05 -0.0166667 0.0333333 -0.05 1.77636e-18 0.0333333 -0.05 0.0166667 0.0333333 -0.05 0.0333333 0.05 -0.0333333 -0.0333333 0.05 -0.0333333 -0.0166667 0.05 -0.0333333 0 0.05 -0.0333333 0.0166667 0.05 -0.0333333 0.0333333 0.05 -0.0166667 -0.0333333 0.05 -0.0166667 -0.0166667 0.05 -0.0166667 0 0.05 -0.0166667 0.0166667 0.05 -0.0166667 0.0333333 0.05 0 -0.0333333 0.05 0 -0.0166667 0.05 0 0 0.05 0 0.0166667 0.05 0 0.0333333 0.05 0.0166667 -0.0333333 0.05 0.0166667 -0.0166667 0.05 0.0166667 0 0.05 0.0166667 0.0166667 0.05 0.0166667 0.0333333 0.05 0.0333333 -0.0333333 0.05 0.0333333 -0.0166667 0.05 0.0333333 1.77636e-18 0.05 0.0333333 0.0166667 0.05 0.0333333 0.0333333 0.0333333 0.05 -0.0333333 0.0333333 0.05 -0.0166667 0.0333333 0.05 0 0.0333333 0.05 0.0166667 0.0333333 0.05 0.0333333 0.0166667 0.05 -0.0333333 0.0166667 0.05 -0.0166667 0.0166667 0.05 0 0.0166667 0.05 0.0166667 0.0166667 0.05 0.0333333 0 0.05 -0.0333333 0 0.05 -0.0166667 0 0.05 0 0 0.05 0.0166667 0 0.05 0.0333333 -0.0166667 0.05 -0.0333333 -0.0166667 0.05 -0.0166667 -0.0166667 0.05 0 -0.0166667 0.05 0.0166667 -0.0166667 0.05 0.0333333 -0.0333333 0.05 -0.0333333 -0.0333333 0.05 -0.0166667 -0.0333333 0.05 1.77636e-18 -0.0333333 0.05 0.0166667 -0.0333333 0.05 0.0333333 -0.05 0.0333333 -0.0333333 -0.05 0.0333333 -0.0166667 -0.05 0.0333333 0 -0.05 0.0333333 0.0166667 -0.05 0.0333333 0.0333333 -0.05 0.0166667 -0.0333333 -0.05 0.0166667 -0.0166667 -0.05 0.0166667 0 -0.05 0.0166667 0.0166667 -0.05 0.0166667 0.0333333 -0.05 0 -0.0333333 -0.05 0 -0.0166667 -0.05 0 0 -0.05 0 0.0166667 -0.05 0 0.0333333 -0.05 -0.0166667 -0.0333333 -0.05 -0.0166667 -0.0166667 -0.05 -0.0166667 0 -0.05 -0.0166667 0.0166667 -0.05 -0.0166667 0.0333333 -0.05 -0.0333333 -0.0333333 -0.05 -0.0333333 -0.0166667 -0.05 -0.0333333 1.77636e-18 -0.05 -0.0333333 0.0166667 -0.05 -0.0333333 0.0333333 -0.0333333 0.0333333 -0.0333333 -0.0333333 0.0333333 -0.0166667 -0.0333333 0.0333333 4.44089e-19 -0.0333333 0.0333333 0.0166667 -0.0333333 0.0333333 0.0333333 -0.0333333 0.0166667 -0.0333333 -0.0333333 0.0166667 -0.0166667 -0.0333333 0.0166667 -4.44089e-18 -0.0333333 0.0166667 0.0166667 -0.0333333 0.0166667 0.0333333 -0.0333333 -6.66134e-18 -0.0333333 -0.0333333 -9.76996e-18 -0.0166667 -0.0333333 -1.77636e-18 -1.77636e-18 -0.0333333 -1.77636e-18 0.0166667 -0.0333333 3.55271e-18 0.0333333 -0.0333333 -0.0166667 -0.0333333 -0.0333333 -0.0166667 -0.0166667 -0.0333333 -0.0166667 1.77636e-18 -0.0333333 -0.0166667 0.0166667 -0.0333333 -0.0166667 0.0333333 -0.0333333 -0.0333333 -0.0333333 -0.0333333 -0.0333333 -0.0166667 -0.0333333 -0.0333333 0 -0.0333333 -0.0333333 0.0166667 -0.0333333 -0.0333333 0.0333333 -0.0166667 0.0333333 -0.0333333 -0.0166667 0.0333333 -0.0166667 -0.0166667 0.0333333 2.66454e-18 -0.0166667 0.0333333 0.0166667 -0.0166667 0.0333333 0.0333333 -0.0166667 0.0166667 -0.0333333 -0.0166667 0.0166667 -0.0166667 -0.0166667 0.0166667 -1.77636e-18 -0.0166667 0.0166667 0.0166667 -0.0166667 0.0166667 0.0333333 -0.0166667 -1.06581e-17 -0.0333333 -0.0166667 -1.15463e-17 -0.0166667 -0.0166667 -3.55271e-18 0 -0.0166667 -8.88178e-18 0.0166667 -0.0166667 -1.77636e-18 0.0333333 -0.0166667 -0.0166667 -0.0333333 -0.0166667 -0.0166667 -0.0166667 -0.0166667 -0.0166667 3.55271e-18 -0.0166667 -0.0166667 0.0166667 -0.0166667 -0.0166667 0.0333333 -0.0166667 -0.0333333 -0.0333333 -0.0166667 -0.0333333 -0.0166667 -0.0166667 -0.0333333 0 -0.0166667 -0.0333333 0.0166667 -0.0166667 -0.0333333 0.0333333 3.44169e-18 0.0333333 -0.0333333 1.02141e-17 0.0333333 -0.0166667 2.66454e-18 0.0333333 -8.88178e-19 6.21725e-18 0.0333333 0.0166667 1.33227e-18 0.0333333 0.0333333 7.99361e-18 0.0166667 -0.0333333 8.43769e-18 0.0166667 -0.0166667 8.88178e-19 0.0166667 8.88178e-19 7.99361e-18 0.0166667 0.0166667 3.55271e-18 0.0166667 0.0333333 3.55271e-18 -1.77636e-18 -0.0333333 9.76996e-18 -9.76996e-18 -0.0166667 0 -8.88178e-19 -8.88178e-19 8.88178e-18 -8.88178e-18 0.0166667 1.77636e-18 -1.77636e-18 0.0333333 1.02141e-17 -0.0166667 -0.0333333 1.24345e-17 -0.0166667 -0.0166667 3.55271e-18 -0.0166667 -1.77636e-18 8.88178e-18 -0.0166667 0.0166667 3.55271e-18 -0.0166667 0.0333333 5.77316e-18 -0.0333333 -0.0333333 4.44089e-18 -0.0333333 -0.0166667 1.77636e-18 -0.0333333 1.77636e-18 5.32907e-18 -0.0333333 0.0166667 0 -0.0333333 0.0333333 0.0166667 0.0333333 -0.0333333 0.0166667 0.0333333 -0.0166667 0.0166667 0.0333333 -2.66454e-18 0.0166667 0.0333333 0.0166667 0.0166667 0.0333333 0.0333333 0.0166667 0.0166667 -0.0333333 0.0166667 0.0166667 -0.0166667 0.0166667 0.0166667 3.10862e-18 0.0166667 0.0166667 0.0166667 0.0166667 0.0166667 0.0333333 0.0166667 -1.24345e-17 -0.0333333 0.0166667 -1.37668e-17 -0.0166667 0.0166667 -3.55271e-18 -1.77636e-18 0.0166667 -6.21725e-18 0.0166667 0.0166667 -8.88178e-19 0.0333333 0.0166667 -0.0166667 -0.0333333 0.0166667 -0.0166667 -0.0166667 0.0166667 -0.0166667 2.66454e-18 0.0166667 -0.0166667 0.0166667 0.0166667 -0.0166667 0.0333333 0.0166667 -0.0333333 -0.0333333 0.0166667 -0.0333333 -0.0166667 0.0166667 -0.0333333 0 0.0166667 -0.0333333 0.0166667 0.0166667 -0.0333333 0.0333333 0.0333333 0.0333333 -0.0333333 0.0333333 0.0333333 -0.0166667 0.0333333 0.0333333 3.33067e-19 0.0333333 0.0333333 0.0166667 0.0333333 0.0333333 0.0333333 0.0333333 0.0166667 -0.0333333 0.0333333 0.0166667 -0.0166667 0.0333333 0.0166667 1.11022e-18 0.0333333 0.0166667 0.0166667 0.0333333 0.0166667 0.0333333 0.0333333 -4.44089e-18 -0.0333333 0.0333333 -4.21885e-18 -0.0166667 0.0333333 8.88178e-19 8.88178e-19 0.0333333 -1.33227e-18 0.0166667 0.0333333 3.55271e-18 0.0333333 0.0333333 -0.0166667 -0.0333333 0.0333333 -0.0166667 -0.0166667 0.0333333 -0.0166667 2.22045e-18 0.0333333 -0.0166667 0.0166667 0.0333333 -0.0166667 0.0333333 0.0333333 -0.0333333 -0.0333333 0.0333333 -0.0333333 -0.0166667 0.0333333 -0.0333333 2.22045e-18 0.0333333 -0.0333333 0.0166667 0.0333333 -0.0333333 0.0333333 </DataArray>
</Points>
<Cells>
<DataArray type="Int32" Name="connectivity" format="ascii">
68 22 3 23 218 188 63 193 218 188 63 193 219 189 64 194 219 189 64 194 220 190 65 195 220 190 65 195 221 191 66 196 221 191 66 196 222 192 67 197 222 192 67 197 97 42 7 43 69 68 23 24 223 218 193 198 223 218 193 198 224 219 194 199 224 219 194 199 225 220 195 200 225 220 195 200 226 221 196 201 226 221 196 201 227 222 197 202 227 222 197 202 96 97 43 44 70 69 24 25 228 223 198 203 228 223 198 203 229 224 199 204 229 224 199 204 230 225 200 205 230 225 200 205 231 226 201 206 231 226 201 206 232 227 202 207 232 227 202 207 95 96 44 45 71 70 25 26 233 228 203 208 233 228 203 208 234 229 204 209 234 229 204 209 235 230 205 210 235 230 205 210 236 231 206 211 236 231 206 211 237 232 207 212 237 232 207 212 94 95 45 46 72 71 26 27 238 233 208 213 238 233 208 213 239 234 209 214 239 234 209 214 240 235 210 215 240 235 210 215 241 236 211 216 241 236 211 216 242 237 212 217 242 237 212 217 93 94 46 47 8 72 27 0 118 238 213 48 118 238 213 48 119 239 214 49 119 239 214 49 120 240 215 50 120 240 215 50 121 241 216 51 121 241 216 51 122 242 217 52 122 242 217 52 28 93 47 4 73 21 22 68 243 183 188 218 243 183 188 218 244 184 189 219 244 184 189 219 245 185 190 220 245 185 190 220 246 186 191 221 246 186 191 221 247 187 192 222 247 187 192 222 102 41 42 97 74 73 68 69 248 243 218 223 248 243 218 223 249 244 219 224 249 244 219 224 250 245 220 225 250 245 220 225 251 246 221 226 251 246 221 226 252 247 222 227 252 247 222 227 101 102 97 96 75 74 69 70 253 248 223 228 253 248 223 228 254 249 224 229 254 249 224 229 255 250 225 230 255 250 225 230 256 251 226 231 256 251 226 231 257 252 227 232 257 252 227 232 100 101 96 95 76 75 70 71 258 253 228 233 258 253 228 233 259 254 229 234 259 254 229 234 260 255 230 235 260 255 230 235 261 256 231 236 261 256 231 236 262 257 232 237 262 257 232 237 99 100 95 94 77 76 71 72 263 258 233 238 263 258 233 238 264 259 234 239 264 259 234 239 265 260 235 240 265 260 235 240 266 261 236 241 266 261 236 241 267 262 237 242 267 262 237 242 98 99 94 93 9 77 72 8 123 263 238 118 123 263 238 118 124 264 239 119 124 264 239 119 125 265 240 120 125 265 240 120 126 266 241 121 126 266 241 121 127 267 242 122 127 267 242 122 29 98 93 28 78 20 21 73 268 178 183 243 268 178 183 243 269 179 184 244 269 179 184 244 270 180 185 245 270 180 185 245 271 181 186 246 271 181 186 246 272 182 187 247 272 182 187 247 107 40 41 102 79 78 73 74 273 268 243 248 273 268 243 248 274 269 244 249 274 269 244 249 275 270 245 250 275 270 245 250 276 271 246 251 276 271 246 251 277 272 247 252 277 272 247 252 106 107 102 101 80 79 74 75 278 273 248 253 278 273 248 253 279 274 249 254 279 274 249 254 280 275 250 255 280 275 250 255 281 276 251 256 281 276 251 256 282 277 252 257 282 277 252 257 105 106 101 100 81 80 75 76 283 278 253 258 283 278 253 258 284 279 254 259 284 279 254 259 285 280 255 260 285 280 255 260 286 281 256 261 286 281 256 261 287 282 257 262 287 282 257 262 104 105 100 99 82 81 76 77 288 283 258 263 288 283 258 263 289 284 259 264 289 284 259 264 290 285 260 265 290 285 260 265 291 286 261 266 291 286 261 266 292 287 262 267 292 287 262 267 103 104 99 98 10 82 77 9 128 288 263 123 128 288 263 123 129 289 264 124 129 289 264 124 130 290 265 125 130 290 265 125 131 291 266 126 131 291 266 126 132 292 267 127 132 292 267 127 30 103 98 29 83 19 20 78 293 173 178 268 293 173 178 268 294 174 179 269 294 174 179 269 295 175 180 270 295 175 180 270 296 176 181 271 296 176 181 271 297 177 182 272 297 177 182 272 112 39 40 107 84 83 78 79 298 293 268 273 298 293 268 273 299 294 269 274 299 294 269 274 300 295 270 275 300 295 270 275 301 296 271 276 301 296 271 276 302 297 272 277 302 297 272 277 111 112 107 106 85 84 79 80 303 298 273 278 303 298 273 278 304 299 274 279 304 299 274 279 305 300 275 280 305 300 275 280 306 301 276 281 306 301 276 281 307 302 277 282 307 302 277 282 110 111 106 105 86 85 80 81 308 303 278 283 308 303 278 283 309 304 279 284 309 304 279 284 310 305 280 285 310 305 280 285 311 306 281 286 311 306 281 286 312 307 282 287 312 307 282 287 109 110 105 104 87 86 81 82 313 308 283 288 313 308 283 288 314 309 284 289 314 309 284 289 315 310 285 290 315 310 285 290 316 311 286 291 316 311 286 291 317 312 287 292 317 312 287 292 108 109 104 103 11 87 82 10 133 313 288 128 133 313 288 128 134 314 289 129 134 314 289 129 135 315 290 130 135 315 290 130 136 316 291 131 136 316 291 131 137 317 292 132 137 317 292 132 31 108 103 30 88 18 19 83 318 168 173 293 318 168 173 293 319 169 174 294 319 169 174 294 320 170 175 295 320 170 175 295 321 171 176 296 321 171 176 296 322 172 177 297 322 172 177 297 117 38 39 112 89 88 83 84 323 318 293 298 323 318 293 298 324 319 294 299 324 319 294 299 325 320 295 300 325 320 295 300 326 321 296 301 326 321 296 301 327 322 297 302 327 322 297 302 116 117 112 111 90 89 84 85 328 323 298 303 328 323 298 303 329 324 299 304 329 324 299 304 330 325 300 305 330 325 300 305 331 326 301 306 331 326 301 306 332 327 302 307 332 327 302 307 115 116 111 110 91 90 85 86 333 328 303 308 333 328 303 308 334 329 304 309 334 329 304 309 335 330 305 310 335 330 305 310 336 331 306 311 336 331 306 311 337 332 307 312 337 332 307 312 114 115 110 109 92 91 86 87 338 333 308 313 338 333 308 313 339 334 309 314 339 334 309 314 340 335 310 315 340 335 310 315 341 336 311 316 341 336 311 316 342 337 312 317 342 337 312 317 113 114 109 108 12 92 87 11 138 338 313 133 138 338 313 133 139 339 314 134 139 339 314 134 140 340 315 135 140 340 315 135 141 341 316 136 141 341 316 136 142 342 317 137 142 342 317 137 32 113 108 31 17 2 18 88 163 58 168 318 163 58 168 318 164 59 169 319 164 59 169 319 165 60 170 320 165 60 170 320 166 61 171 321 166 61 171 321 167 62 172 322 167 62 172 322 37 6 38 117 16 17 88 89 158 163 318 323 158 163 318 323 159 164 319 324 159 164 319 324 160 165 320 325 160 165 320 325 161 166 321 326 161 166 321 326 162 167 322 327 162 167 322 327 36 37 117 116 15 16 89 90 153 158 323 328 153 158 323 328 154 159 324 329 154 159 324 329 155 160 325 330 155 160 325 330 156 161 326 331 156 161 326 331 157 162 327 332 157 162 327 332 35 36 116 115 14 15 90 91 148 153 328 333 148 153 328 333 149 154 329 334 149 154 329 334 150 155 330 335 150 155 330 335 151 156 331 336 151 156 331 336 152 157 332 337 152 157 332 337 34 35 115 114 13 14 91 92 143 148 333 338 143 148 333 338 144 149 334 339 144 149 334 339 145 150 335 340 145 150 335 340 146 151 336 341 146 151 336 341 147 152 337 342 147 152 337 342 33 34 114 113 1 13 92 12 53 143 338 138 53 143 338 138 54 144 339 139 54 144 339 139 55 145 340 140 55 145 340 140 56 146 341 141 56 146 341 141 57 147 342 142 57 147 342 142 5 33 113 32 </DataArray>
<DataArray type="Int32" Name="offsets" format="ascii">
8 16 24 32 40 48 56 64 72 80 88 96 104 112 120 128 136 144 152 160 168 176 184 192 200 208 216 224 232 240 248 256 264 272 280 288 296 304 312 320 328 336 344 352 360 368 376 384 392 400 408 416 424 432 440 448 456 464 472 480 488 496 504 512 520 528 536 544 552 560 568 576 584 592 600 608 616 624 632 640 648 656 664 672 680 688 696 704 712 720 728 736 744 752 760 768 776 784 792 800 808 816 824 832 840 848 856 864 872 880 888 896 904 912 920 928 936 944 952 960 968 976 984 992 1000 1008 1016 1024 1032 1040 1048 1056 1064 1072 1080 1088 1096 1104 1112 1120 1128 1136 1144 1152 1160 1168 1176 1184 1192 1200 1208 1216 1224 1232 1240 1248 1256 1264 1272 1280 1288 1296 1304 1312 1320 1328 1336 1344 1352 1360 1368 1376 1384 1392 1400 1408 1416 1424 1432 1440 1448 1456 1464 1472 1480 1488 1496 1504 1512 1520 1528 1536 1544 1552 1560 1568 1576 1584 1592 1600 1608 1616 1624 1632 1640 1648 1656 1664 1672 1680 1688 1696 1704 1712 1720 1728 </DataArray>
<DataArray type="UInt8" Name="types" format="ascii">
12 12 12 12 12 12 12 12 12 12 12 12 12 12 12 12 12 12 12 12 12 12 12 12 12 12 12 12 12 12 12 12 12 12 12 12 12 12 12 12 12 12 12 12 12 12 12 12 12 12 12 12 12 12 12 12 12 12 12 12 12 12 12 12 12 12 12 12 12 12 12 12 12 12 12 12 12 12 12 12 12 12 12 12 12 12 12 12 12 12 12 12 12 12 12 12 12 12 12 12 12 12 12 12 12 12 12 12 12 12 12 12 12 12 12 12 12 12 12 12 12 12 12 12 12 12 12 12 12 12 12 12 12 12 12 12 12 12 12 12 12 12 12 12 12 12 12 12 12 12 12 12 12 12 12 12 12 12 12 12 12 12 12 12 12 12 12 12 12 12 12 12 12 12 12 12 12 12 12 12 12 12 12 12 12 12 12 12 12 12 12 12 12 12 12 12 12 12 12 12 12 12 12 12 12 12 12 12 12 12 12 12 12 12 12 12 </DataArray>
</Cells>
<CellData Scalars="scalars">
<DataArray type="Float32" Name="number_density" format="ascii">
6.48e+15 1.296e+16 6.48e+15 1.08e+16 6.48e+15 8.64e+15 1.296e+16 1.08e+16 4.32e+15 8.64e+15 8.64e+15 8.64e+15 1.08e+16 8.64e+15 8.64e+15 4.32e+15 8.64e+15 8.64e+15 6.48e+15 6.48e+15 4.32e+15 2.16e+15 1.08e+16 2.16e+15 8.64e+15 0 2.16e+15 6.48e+15 0 8.64e+15 1.08e+16 4.32e+15 2.16e+15 1.08e+16 1.296e+16 2.16e+16 1.296e+16 1.296e+16 6.48e+15 1.08e+16 4.32e+15 6.48e+15 8.64e+15 1.296e+16 2.16e+16 1.08e+16 1.296e+16 6.48e+15 8.64e+15 1.296e+16 1.08e+16 6.48e+15 1.728e+16 1.08e+16 1.296e+16 6.48e+15 8.64e+15 2.16e+15 1.512e+16 1.296e+16 2.16e+15 6.48e+15 6.48e+15 8.64e+15 4.32e+15 0 8.64e+15 2.16e+15 2.16e+15 1.08e+16 6.48e+15 4.32e+15 1.512e+16 1.512e+16 8.64e+15 1.728e+16 1.296e+16 1.512e+16 2.16e+15 1.08e+16 1.08e+16 1.512e+16 1.08e+16 6.48e+15 8.64e+15 6.48e+15 4.32e+15 1.728e+16 1.512e+16 1.296e+16 6.48e+15 8.64e+15 8.64e+15 1.728e+16 1.08e+16 4.32e+15 1.296e+16 6.48e+15 1.08e+16 1.08e+16 2.16e+15 8.64e+15 1.08e+16 6.48e+15 2.16e+15 1.08e+16 0 1.728e+16 6.48e+15 1.08e+16 1.296e+16 1.08e+16 1.728e+16 1.728e+16 1.728e+16 6.48e+15 2.16e+16 3.24e+16 1.944e+16 1.08e+16 2.16e+15 8.64e+15 8.64e+15 4.104e+16 1.728e+16 6.48e+15 6.48e+15 4.32e+15 1.08e+16 6.48e+15 1.296e+16 1.944e+16 1.08e+16 2.16e+15 1.08e+16 1.296e+16 8.64e+15 8.64e+15 6.48e+15 2.16e+15 2.16e+15 4.32e+15 2.16e+15 1.512e+16 6.48e+15 1.08e+16 1.296e+16 1.944e+16 6.48e+15 1.512e+16 6.48e+15 8.64e+15 1.944e+16 2.376e+16 2.16e+16 2.16e+16 8.64e+15 6.48e+15 1.944e+16 2.16e+16 1.944e+16 2.16e+15 1.728e+16 1.08e+16 1.728e+16 1.512e+16 1.08e+16 4.32e+15 1.512e+16 1.296e+16 8.64e+15 1.512e+16 4.32e+15 1.08e+16 4.32e+15 8.64e+15 1.08e+16 4.32e+15 4.32e+15 4.32e+15 1.512e+16 1.08e+16 1.728e+16 1.512e+16 4.32e+15 1.296e+16 6.48e+15 1.08e+16 4.32e+15 1.08e+16 6.48e+15 1.296e+16 1.296e+16 1.08e+16 6.48e+15 1.944e+16 2.376e+16 1.08e+16 1.296e+16 1.296e+16 8.64e+15 6.48e+15 8.64e+15 6.48e+15 8.64e+15 6.48e+15 1.296e+16 4.32e+15 1.296e+16 0 4.32e+15 4.32e+15 1.08e+16 8.64e+15 8.64e+15 1.296e+16 </DataArray>
<DataArray type="Float32" Name="potential" format="ascii">
0 0 0 0 0 0 0 0 0 0 0 0 0 0 0 0 0 0 0 0 0 0 0 0 0 0 0 0 0 0 0 0 0 0 0 0 0 0 0 0 0 0 0 0 0 0 0 0 0 0 0 0 0 0 0 0 0 0 0 0 0 0 0 0 0 0 0 0 0 0 0 0 0 0 0 0 0 0 0 0 0 0 0 0 0 0 0 0 0 0 0 0 0 0 0 0 0 0 0 0 0 0 0 0 0 0 0 0 0 0 0 0 0 0 0 0 0 0 0 0 0 0 0 0 0 0 0 0 0 0 0 0 0 0 0 0 0 0 0 0 0 0 0 0 0 0 0 0 0 0 0 0 0 0 0 0 0 0 0 0 0 0 0 0 0 0 0 0 0 0 0 0 0 0 0 0 0 0 0 0 0 0 0 0 0 0 0 0 0 0 0 0 0 0 0 0 0 0 0 0 0 0 0 0 0 0 0 0 0 0 0 0 0 0 0 0 </DataArray>
<DataArray type="Float32" Name="temperature" format="ascii">
323.603 170.993 120.866 227.024 278.061 377.781 204.731 292.38 305.133 386.608 228.613 169.936 261.137 282.341 113.567 299.028 182.07 338.841 89.3092 91.0466 158.955 1e-15 100.645 4.72531e-14 196.642 0 9.38395e-14 71.925 0 97.0438 121.196 44.3064 2.39599e-14 204.977 247.315 216.968 72.8016 287.076 259.526 337.824 55.3745 287.244 271.336 394.448 485.35 265.723 273.51 218.649 251.607 458.377 300.855 162.087 453.341 311.167 414.513 158.945 271.012 3.78848e-13 338.148 585.027 1e-15 253.859 82.988 465.692 40.8296 0 80.5932 4.72531e-14 2.39599e-14 410.042 278.474 120.407 348.36 446.947 364.183 641.711 609.731 452.518 1e-15 455.072 800.604 670.022 227.898 128.303 451.237 342.005 306.093 158.236 454.323 119.696 246.993 223.698 223.389 628.85 537.548 202.116 385.849 91.9872 331.659 212.324 1e-15 233.008 479.432 127.072 1.98326e-13 323.927 0 315.485 220.819 630.558 296.262 341.73 517.416 388.189 360.55 285.21 688.33 925.812 337.038 345.59 1e-15 515.303 637.095 861.015 563.254 599.557 389.986 39.4433 659.005 497.102 486.896 347.273 225.323 2.39599e-14 648.941 340.048 576.823 636.812 445.771 1e-15 1e-15 101.424 1e-15 268.998 199.776 265.488 227.644 314.876 244.124 304.778 245.954 495.394 785.733 1041.66 623.451 378.46 659.625 80.3095 494.525 798.126 584.364 1e-15 343.529 112.499 532.44 834.058 333.711 98.2433 269.484 496.41 207.036 501.207 100.894 156.293 140.5 301.638 399.196 66.3124 157.672 72.0179 282.969 271.081 204.214 408.248 39.8963 123.341 146.535 207.564 158.025 100.194 173.801 315.077 257.101 743.112 401.547 454.575 384.353 140.201 172.967 392.728 394.961 525.623 441.418 154.189 397.493 145.593 158.155 121.018 321.675 0 34.7268 123.649 471.429 171.847 141.374 167.175 </DataArray>
<DataArray type="Float32" Name="velocity" format="ascii">
298.941 387.08 570.569 378.467 397.809 184.969 489.677 507.133 874.391 1099.57 652.084 518.604 472.215 864.032 1199.56 875.644 589.734 345.686 331.551 827.76 1155.44 1053.95 656.744 532.002 333.276 0 1043.97 764.37 0 462.76 87.3825 433.882 655.01 526.376 293.648 406.359 347.897 425.087 399.79 656.621 479.415 131.874 674.034 1143.34 1180.1 1142 682.429 427.72 895.241 1346.76 1582.85 1586.43 1087.4 959.192 889.144 1126.8 1636.5 1389.53 1081.35 769.35 775.404 1093.13 1091.19 1288.92 887.879 0 377.256 833.321 1176.53 831.169 398.191 469.723 409.385 662.975 1055.51 790.389 490.929 361.128 851.21 1490.39 2009.57 1207.48 1001.21 528.055 1402.08 1798.38 2254.55 2262.43 1587.47 849.591 1223.23 1629.14 2200.28 2171.73 1412.93 937.153 885.738 1412.96 1277.45 1340.47 902.959 557.737 515.925 903.592 1076.87 928.869 0 379.487 478.352 648.62 652.019 548.533 368.354 230.628 797.947 1449.68 1945.91 1591.91 985.814 429.628 1588.23 1909.02 2741.87 2297.66 1462.05 727.305 1304.15 1578.98 2035.82 1702.77 1491.88 796.955 795.96 745.669 1391.47 1493.98 865.548 536.142 545.582 808.031 841.331 764.304 639.83 382.711 287.7 426.252 781.568 529.56 268.211 292.4 349.219 732.498 1605.66 863.359 487.474 322.186 844.083 1445.13 1183.65 1329.05 887.778 569.956 735.685 828.955 1225.64 1054.67 767.596 505.473 566.956 705.131 1177.93 963.395 688.151 497.87 482.194 501.71 688.579 672.544 638.605 233.889 215.85 394.854 122.766 275.656 249.213 299.186 307.233 350.796 483.606 455.364 374.981 179.259 538.272 369.135 582.882 615.328 250.274 419.763 345.304 557.845 845.486 646.158 230.49 650.876 428.741 319.11 481.403 451.244 522.404 0 111.855 112.26 377.135 566.855 397.087 246.657 </DataArray>
<DataArray type="Float32" Name="E_field" format="ascii">
0 0 0 0 0 0 0 0 0 0 0 0 0 0 0 0 0 0 0 0 0 0 0 0 0 0 0 0 0 0 0 0 0 0 0 0 0 0 0 0 0 0 0 0 0 0 0 0 0 0 0 0 0 0 0 0 0 0 0 0 0 0 0 0 0 0 0 0 0 0 0 0 0 0 0 0 0 0 0 0 0 0 0 0 0 0 0 0 0 0 0 0 0 0 0 0 0 0 0 0 0 0 0 0 0 0 0 0 0 0 0 0 0 0 0 0 0 0 0 0 0 0 0 0 0 0 0 0 0 0 0 0 0 0 0 0 0 0 0 0 0 0 0 0 0 0 0 0 0 0 0 0 0 0 0 0 0 0 0 0 0 0 0 0 0 0 0 0 0 0 0 0 0 0 0 0 0 0 0 0 0 0 0 0 0 0 0 0 0 0 0 0 0 0 0 0 0 0 0 0 0 0 0 0 0 0 0 0 0 0 0 0 0 0 0 0 </DataArray>
</CellData>
<PointData Scalars="number_density">
<DataArray type="Float32" Name="number_density" format="ascii">
1.08e+16 4.32e+15 1.512e+16 6.48e+15 2.16e+16 1.296e+16 1.296e+16 8.64e+15 9.72e+15 9.72e+15 8.64e+15 5.4e+15 4.32e+15 6.48e+15 1.08e+16 1.296e+16 9.72e+15 1.08e+16 1.08e+16 6.48e+15 1.08e+16 1.404e+16 9.72e+15 9.72e+15 1.188e+16 8.64e+15 7.56e+15 9.72e+15 1.296e+16 1.08e+16 1.62e+16 9.72e+15 8.64e+15 6.48e+15 3.24e+15 8.64e+15 1.188e+16 1.296e+16 1.404e+16 1.62e+16 1.62e+16 1.08e+16 7.56e+15 8.64e+15 8.64e+15 5.4e+15 5.4e+15 1.512e+16 7.56e+15 3.24e+15 6.48e+15 1.188e+16 1.728e+16 4.32e+15 7.56e+15 9.72e+15 8.64e+15 1.08e+16 1.296e+16 1.404e+16 1.62e+16 9.72e+15 8.64e+15 9.72e+15 9.72e+15 8.64e+15 8.64e+15 7.56e+15 1.026e+16 1.026e+16 9.72e+15 7.56e+15 7.56e+15 9.72e+15 7.02e+15 9.18e+15 8.64e+15 8.64e+15 1.026e+16 7.56e+15 5.94e+15 9.18e+15 1.026e+16 9.18e+15 8.64e+15 8.64e+15 1.242e+16 9.18e+15 8.64e+15 8.64e+15 1.296e+16 1.35e+16 8.1e+15 8.64e+15 5.94e+15 8.64e+15 8.64e+15 7.56e+15 7.56e+15 6.48e+15 1.026e+16 9.18e+15 8.64e+15 1.242e+16 1.026e+16 1.08e+16 9.18e+15 1.242e+16 9.72e+15 1.08e+16 8.1e+15 1.026e+16 1.62e+16 7.02e+15 5.4e+15 5.94e+15 1.188e+16 1.566e+16 6.48e+15 2.7e+15 6.48e+15 1.026e+16 1.134e+16 7.02e+15 3.24e+15 6.48e+15 7.02e+15 7.02e+15 6.48e+15 3.24e+15 4.86e+15 4.32e+15 8.64e+15 5.4e+15 5.94e+15 5.4e+15 3.78e+15 6.48e+15 5.4e+15 8.64e+15 8.64e+15 6.48e+15 7.56e+15 5.94e+15 8.64e+15 9.18e+15 8.64e+15 8.64e+15 1.026e+16 1.026e+16 8.1e+15 8.1e+15 7.02e+15 1.242e+16 9.72e+15 1.026e+16 1.458e+16 1.242e+16 1.026e+16 8.1e+15 1.026e+16 1.512e+16 1.35e+16 1.08e+16 1.08e+16 1.188e+16 9.18e+15 9.18e+15 1.08e+16 1.296e+16 1.62e+16 1.134e+16 9.72e+15 8.64e+15 1.188e+16 1.404e+16 1.35e+16 1.404e+16 1.188e+16 1.188e+16 1.242e+16 1.458e+16 1.566e+16 1.404e+16 1.08e+16 1.08e+16 1.134e+16 9.72e+15 1.134e+16 9.72e+15 8.64e+15 8.1e+15 6.48e+15 1.08e+16 8.64e+15 7.56e+15 8.64e+15 8.1e+15 1.08e+16 8.1e+15 6.48e+15 7.56e+15 8.64e+15 8.1e+15 7.02e+15 4.86e+15 6.48e+15 7.56e+15 5.4e+15 3.24e+15 3.78e+15 4.86e+15 5.4e+15 5.94e+15 2.16e+15 5.4e+15 7.56e+15 1.08e+16 1.134e+16 1.107e+16 9.99e+15 9.18e+15 7.83e+15 1.08e+16 1.134e+16 9.45e+15 9.72e+15 1.026e+16 9.18e+15 8.37e+15 5.94e+15 8.37e+15 1.08e+16 6.21e+15 5.13e+15 5.13e+15 6.21e+15 6.75e+15 5.4e+15 3.24e+15 6.21e+15 7.56e+15 7.29e+15 1.134e+16 1.242e+16 1.269e+16 1.188e+16 9.45e+15 8.91e+15 1.134e+16 1.215e+16 1.323e+16 1.161e+16 8.91e+15 8.37e+15 9.45e+15 1.269e+16 1.242e+16 7.83e+15 7.83e+15 9.18e+15 8.91e+15 7.29e+15 7.02e+15 5.4e+15 7.83e+15 6.75e+15 5.4e+15 1.053e+16 1.215e+16 1.62e+16 1.701e+16 1.377e+16 7.83e+15 9.72e+15 1.89e+16 2.106e+16 1.242e+16 6.48e+15 7.56e+15 1.431e+16 1.728e+16 1.242e+16 7.29e+15 7.83e+15 1.107e+16 1.026e+16 9.45e+15 7.29e+15 5.4e+15 8.1e+15 6.48e+15 7.83e+15 9.18e+15 1.296e+16 1.917e+16 1.89e+16 1.62e+16 8.1e+15 1.242e+16 2.349e+16 2.457e+16 1.485e+16 8.1e+15 1.08e+16 1.755e+16 1.809e+16 1.161e+16 9.99e+15 9.72e+15 1.215e+16 1.08e+16 9.99e+15 7.83e+15 7.29e+15 8.64e+15 7.02e+15 7.29e+15 9.45e+15 1.188e+16 1.539e+16 1.35e+16 1.269e+16 8.91e+15 1.08e+16 1.566e+16 1.836e+16 1.485e+16 1.161e+16 1.161e+16 1.431e+16 1.566e+16 1.08e+16 1.215e+16 1.134e+16 1.107e+16 9.72e+15 7.29e+15 8.1e+15 9.45e+15 9.45e+15 7.83e+15 7.29e+15 </DataArray>
<DataArray type="Float32" Name="potential" format="ascii">
0 0 0 0 0 0 0 0 0 0 0 0 0 0 0 0 0 0 0 0 0 0 0 0 0 0 0 0 0 0 0 0 0 0 0 0 0 0 0 0 0 0 0 0 0 0 0 0 0 0 0 0 0 0 0 0 0 0 0 0 0 0 0 0 0 0 0 0 0 0 0 0 0 0 0 0 0 0 0 0 0 0 0 0 0 0 0 0 0 0 0 0 0 0 0 0 0 0 0 0 0 0 0 0 0 0 0 0 0 0 0 0 0 0 0 0 0 0 0 0 0 0 0 0 0 0 0 0 0 0 0 0 0 0 0 0 0 0 0 0 0 0 0 0 0 0 0 0 0 0 0 0 0 0 0 0 0 0 0 0 0 0 0 0 0 0 0 0 0 0 0 0 0 0 0 0 0 0 0 0 0 0 0 0 0 0 0 0 0 0 0 0 0 0 0 0 0 0 0 0 0 0 0 0 0 0 0 0 0 0 0 0 0 0 0 0 0 0 0 0 0 0 0 0 0 0 0 0 0 0 0 0 0 0 0 0 0 0 0 0 0 0 0 0 0 0 0 0 0 0 0 0 0 0 0 0 0 0 0 0 0 0 0 0 0 0 0 0 0 0 0 0 0 0 0 0 0 0 0 0 0 0 0 0 0 0 0 0 0 0 0 0 0 0 0 0 0 0 0 0 0 0 0 0 0 0 0 0 0 0 0 0 0 0 0 0 0 0 0 0 0 0 0 0 0 0 0 0 0 0 0 0 0 0 0 0 0 0 0 0 0 0 0 </DataArray>
<DataArray type="Float32" Name="temperature" format="ascii">