<VTKFile type="UnstructuredGrid" version="0.1" byte_order="LittleEndian">
<UnstructuredGrid>
<Piece NumberOfPoints="343" NumberOfCells="216">
<Points>
<DataArray type="Float32" NumberOfComponents="3" format="ascii">
-0.05 -0.05 -0.05 0.05 -0.05 -0.05 0.05 0.05 -0.05 -0.05 0.05 -0.05 -0.05 -0.05 0.05 0.05 -0.05 0.05 0.05 0.05 0.05 -0.05 0.05 0.05 -0.0333333 -0.05 -0.05 -0.0166667 -0.05 -0.05 0 -0.05 -0.05 0.0166667 -0.05 -0.05 0.0333333 -0.05 -0.05 0.05 -0.0333333 -0.05 0.05 -0.0166667 -0.05 0.05 0 -0.05 0.05 0.0166667 -0.05 0.05 0.0333333 -0.05 0.0333333 0.05 -0.05 0.0166667 0.05 -0.05 0 0.05 -0.05 -0.0166667 0.05 -0.05 -0.0333333 0.05 -0.05 -0.05 0.0333333 -0.05 -0.05 0.0166667 -0.05 -0.05 0 -0.05 -0.05 -0.0166667 -0.05 -0.05 -0.0333333 -0.05 -0.0333333 -0.05 0.05 -0.0166667 -0.05 0.05 0 -0.05 0.05 0.0166667 -0.05 0.05 0.0333333 -0.05 0.05 0.05 -0.0333333 0.05 0.05 -0.0166667 0.05 0.05 0 0.05 0.05 0.0166667 0.05 0.05 0.0333333 0.05 0.0333333 0.05 0.05 0.0166667 0.05 0.05 0 0.05 0.05 -0.0166667 0.05 0.05 -0.0333333 0.05 0.05 -0.05 0.0333333 0.05 -0.05 0.0166667 0.05 -0.05 0 0.05 -0.05 -0.0166667 0.05 -0.05 -0.0333333 0.05 -0.05 -0.05 -0.0333333 -0.05 -0.05 -0.0166667 -0.05 -0.05 0 -0.05 -0.05 0.0166667 -0.05 -0.05 0.0333333 0.05 -0.05 -0.0333333 0.05 -0.05 -0.0166667 0.05 -0.05 0 0.05 -0.05 0.0166667 0.05 -0.05 0.0333333 0.05 0.05 -0.0333333 0.05 0.05 -0.0166667 0.05 0.05 0 0.05 0.05 0.0166667 0.05 0.05 0.0333333 -0.05 0.05 -0.0333333 -0.05 0.05 -0.0166667 -0.05 0.05 0 -0.05 0.05 0.0166667 -0.05 0.05 0.0333333 -0.0333333 0.0333333 -0.05 -0.0333333 0.0166667 -0.05 -0.0333333 -3.55271e-18 -0.05 -0.0333333 -0.0166667 -0.05 -0.0333333 -0.0333333 -0.05 -0.0166667 0.0333333 -0.05 -0.0166667 0.0166667 -0.05 -0.0166667 -7.10543e-18 -0.05 -0.0166667 -0.0166667 -0.05 -0.0166667 -0.0333333 -0.05 1.77636e-18 0.0333333 -0.05 5.32907e-18 0.0166667 -0.05 3.55271e-18 -1.77636e-18 -0.05 7.10543e-18 -0.0166667 -0.05 3.55271e-18 -0.0333333 -0.05 0.0166667 0.0333333 -0.05 0.0166667 0.0166667 -0.05 0.0166667 -7.10543e-18 -0.05 0.0166667 -0.0166667 -0.05 0.0166667 -0.0333333 -0.05 0.0333333 0.0333333 -0.05 0.0333333 0.0166667 -0.05 0.0333333 -1.77636e-18 -0.05 0.0333333 -0.0166667 -0.05 0.0333333 -0.0333333 -0.05 -0.0333333 -0.0333333 0.05 -0.0333333 -0.0166667 0.05 -0.0333333 0 0.05 -0.0333333 0.0166667 0.05 -0.0333333 0.0333333 0.05 -0.0166667 -0.0333333 0.05 -0.0166667 -0.0166667 0.05 -0.0166667 0 0.05 -0.0166667 0.0166667 0.05 -0.0166667 0.0333333 0.05 0 -0.0333333 0.05 0 -0.0166667 0.05 0 0 0.05 0 0.0166667 0.05 0 0.0333333 0.05 0.0166667 -0.0333333 0.05 0.0166667 -0.0166667 0.05 0.0166667 0 0.05 0.0166667 0.0166667 0.05 0.0166667 0.0333333 0.05 0.0333333 -0.0333333 0.05 0.0333333 -0.0166667 0.05 0.0333333 1.77636e-18 0.05 0.0333333 0.0166667 0.05 0.0333333 0.0333333 0.05 -0.0333333 -0.05 -0.0333333 -0.0333333 -0.05 -0.0166667 -0.0333333 -0.05 0 -0.0333333 -0.05 0.0166667 -0.0333333 -0.05 0.0333333 -0.0166667 -0.05 -0.0333333 -0.0166667 -0.05 -0.0166667 -0.0166667 -0.05 0 -0.0166667 -0.05 0.0166667 -0.0166667 -0.05 0.0333333 0 -0.05 -0.0333333 0 -0.05 -0.0166667 0 -0.05 0 0 -0.05 0.0166667 0 -0.05 0.0333333 0.0166667 -0.05 -0.0333333 0.0166667 -0.05 -0.0166667 0.0166667 -0.05 0 0.0166667 -0.05 0.0166667 0.0166667 -0.05 0.0333333 0.0333333 -0.05 -0.0333333 0.0333333 -0.05 -0.0166667 0.0333333 -0.05 1.77636e-18 0.0333333 -0.05 0.0166667 0.0333333 -0.05 0.0333333 0.05 -0.0333333 -0.0333333 0.05 -0.0333333 -0.0166667 0.05 -0.0333333 0 0.05 -0.0333333 0.0166667 0.05 -0.0333333 0.0333333 0.05 -0.0166667 -0.0333333 0.05 -0.0166667 -0.0166667 0.05 -0.0166667 0 0.05 -0.0166667 0.0166667 0.05 -0.0166667 0.0333333 0.05 0 -0.0333333 0.05 0 -0.0166667 0.05 0 0 0.05 0 0.0166667 0.05 0 0.0333333 0.05 0.0166667 -0.0333333 0.05 0.0166667 -0.0166667 0.05 0.0166667 0 0.05 0.0166667 0.0166667 0.05 0.0166667 0.0333333 0.05 0.0333333 -0.0333333 0.05 0.0333333 -0.0166667 0.05 0.0333333 1.77636e-18 0.05 0.0333333 0.0166667 0.05 0.0333333 0.0333333 0.0333333 0.05 -0.0333333 0.0333333 0.05 -0.0166667 0.0333333 0.05 0 0.0333333 0.05 0.0166667 0.0333333 0.05 0.0333333 0.0166667 0.05 -0.0333333 0.0166667 0.05 -0.0166667 0.0166667 0.05 0 0.0166667 0.05 0.0166667 0.0166667 0.05 0.0333333 0 0.05 -0.0333333 0 0.05 -0.0166667 0 0.05 0 0 0.05 0.0166667 0 0.05 0.0333333 -0.0166667 0.05 -0.0333333 -0.0166667 0.05 -0.0166667 -0.0166667 0.05 0 -0.0166667 0.05 0.0166667 -0.0166667 0.05 0.0333333 -0.0333333 0.05 -0.0333333 -0.0333333 0.05 -0.0166667 -0.0333333 0.05 1.77636e-18 -0.0333333 0.05 0.0166667 -0.0333333 0.05 0.0333333 -0.05 0.0333333 -0.0333333 -0.05 0.0333333 -0.0166667 -0.05 0.0333333 0 -0.05 0.0333333 0.0166667 -0.05 0.0333333 0.0333333 -0.05 0.0166667 -0.0333333 -0.05 0.0166667 -0.0166667 -0.05 0.0166667 0 -0.05 0.0166667 0.0166667 -0.05 0.0166667 0.0333333 -0.05 0 -0.0333333 -0.05 0 -0.0166667 -0.05 0 0 -0.05 0 0.0166667 -0.05 0 0.0333333 -0.05 -0.0166667 -0.0333333 -0.05 -0.0166667 -0.0166667 -0.05 -0.0166667 0 -0.05 -0.0166667 0.0166667 -0.05 -0.0166667 0.0333333 -0.05 -0.0333333 -0.0333333 -0.05 -0.0333333 -0.0166667 -0.05 -0.0333333 1.77636e-18 -0.05 -0.0333333 0.0166667 -0.05 -0.0333333 0.0333333 -0.0333333 0.0333333 -0.0333333 -0.0333333 0.0333333 -0.0166667 -0.0333333 0.0333333 4.44089e-19 -0.0333333 0.0333333 0.0166667 -0.0333333 0.0333333 0.0333333 -0.0333333 0.0166667 -0.0333333 -0.0333333 0.0166667 -0.0166667 -0.0333333 0.0166667 -4.44089e-18 -0.0333333 0.0166667 0.0166667 -0.0333333 0.0166667 0.0333333 -0.0333333 -6.66134e-18 -0.0333333 -0.0333333 -9.76996e-18 -0.0166667 -0.0333333 -1.77636e-18 -1.77636e-18 -0.0333333 -1.77636e-18 0.0166667 -0.0333333 3.55271e-18 0.0333333 -0.0333333 -0.0166667 -0.0333333 -0.0333333 -0.0166667 -0.0166667 -0.0333333 -0.0166667 1.77636e-18 -0.0333333 -0.0166667 0.0166667 -0.0333333 -0.0166667 0.0333333 -0.0333333 -0.0333333 -0.0333333 -0.0333333 -0.0333333 -0.0166667 -0.0333333 -0.0333333 0 -0.0333333 -0.0333333 0.0166667 -0.0333333 -0.0333333 0.0333333 -0.0166667 0.0333333 -0.0333333 -0.0166667 0.0333333 -0.0166667 -0.0166667 0.0333333 2.66454e-18 -0.0166667 0.0333333 0.0166667 -0.0166667 0.0333333 0.0333333 -0.0166667 0.0166667 -0.0333333 -0.0166667 0.0166667 -0.0166667 -0.0166667 0.0166667 -1.77636e-18 -0.0166667 0.0166667 0.0166667 -0.0166667 0.0166667 0.0333333 -0.0166667 -1.06581e-17 -0.0333333 -0.0166667 -1.15463e-17 -0.0166667 -0.0166667 -3.55271e-18 0 -0.0166667 -8.88178e-18 0.0166667 -0.0166667 -1.77636e-18 0.0333333 -0.0166667 -0.0166667 -0.0333333 -0.0166667 -0.0166667 -0.0166667 -0.0166667 -0.0166667 3.55271e-18 -0.0166667 -0.0166667 0.0166667 -0.0166667 -0.0166667 0.0333333 -0.0166667 -0.0333333 -0.0333333 -0.0166667 -0.0333333 -0.0166667 -0.0166667 -0.0333333 0 -0.0166667 -0.0333333 0.0166667 -0.0166667 -0.0333333 0.0333333 3.44169e-18 0.0333333 -0.0333333 1.02141e-17 0.0333333 -0.0166667 2.66454e-18 0.0333333 -8.88178e-19 6.21725e-18 0.0333333 0.0166667 1.33227e-18 0.0333333 0.0333333 7.99361e-18 0.0166667 -0.0333333 8.43769e-18 0.0166667 -0.0166667 8.88178e-19 0.0166667 8.88178e-19 7.99361e-18 0.0166667 0.0166667 3.55271e-18 0.0166667 0.0333333 3.55271e-18 -1.77636e-18 -0.0333333 9.76996e-18 -9.76996e-18 -0.0166667 0 -8.88178e-19 -8.88178e-19 8.88178e-18 -8.88178e-18 0.0166667 1.77636e-18 -1.77636e-18 0.0333333 1.02141e-17 -0.0166667 -0.0333333 1.24345e-17 -0.0166667 -0.0166667 3.55271e-18 -0.0166667 -1.77636e-18 8.88178e-18 -0.0166667 0.0166667 3.55271e-18 -0.0166667 0.0333333 5.77316e-18 -0.0333333 -0.0333333 4.44089e-18 -0.0333333 -0.0166667 1.77636e-18 -0.0333333 1.77636e-18 5.32907e-18 -0.0333333 0.0166667 0 -0.0333333 0.0333333 0.0166667 0.0333333 -0.0333333 0.0166667 0.0333333 -0.0166667 0.0166667 0.0333333 -2.66454e-18 0.0166667 0.0333333 0.0166667 0.0166667 0.0333333 0.0333333 0.0166667 0.0166667 -0.0333333 0.0166667 0.0166667 -0.0166667 0.0166667 0.0166667 3.10862e-18 0.0166667 0.0166667 0.0166667 0.0166667 0.0166667 0.0333333 0.0166667 -1.24345e-17 -0.0333333 0.0166667 -1.37668e-17 -0.0166667 0.0166667 -3.55271e-18 -1.77636e-18 0.0166667 -6.21725e-18 0.0166667 0.0166667 -8.88178e-19 0.0333333 0.0166667 -0.0166667 -0.0333333 0.0166667 -0.0166667 -0.0166667 0.0166667 -0.0166667 2.66454e-18 0.0166667 -0.0166667 0.0166667 0.0166667 -0.0166667 0.0333333 0.0166667 -0.0333333 -0.0333333 0.0166667 -0.0333333 -0.0166667 0.0166667 -0.0333333 0 0.0166667 -0.0333333 0.0166667 0.0166667 -0.0333333 0.0333333 0.0333333 0.0333333 -0.0333333 0.0333333 0.0333333 -0.0166667 0.0333333 0.0333333 3.33067e-19 0.0333333 0.0333333 0.0166667 0.0333333 0.0333333 0.0333333 0.0333333 0.0166667 -0.0333333 0.0333333 0.0166667 -0.0166667 0.0333333 0.0166667 1.11022e-18 0.0333333 0.0166667 0.0166667 0.0333333 0.0166667 0.0333333 0.0333333 -4.44089e-18 -0.0333333 0.0333333 -4.21885e-18 -0.0166667 0.0333333 8.88178e-19 8.88178e-19 0.0333333 -1.33227e-18 0.0166667 0.0333333 3.55271e-18 0.0333333 0.0333333 -0.0166667 -0.0333333 0.0333333 -0.0166667 -0.0166667 0.0333333 -0.0166667 2.22045e-18 0.0333333 -0.0166667 0.0166667 0.0333333 -0.0166667 0.0333333 0.0333333 -0.0333333 -0.0333333 0.0333333 -0.0333333 -0.0166667 0.0333333 -0.0333333 2.22045e-18 0.0333333 -0.0333333 0.0166667 0.0333333 -0.0333333 0.0333333 </DataArray>
</Points>
<Cells>
<DataArray type="Int32" Name="connectivity" format="ascii">
68 22 3 23 218 188 63 193 218 188 63 193 219 189 64 194 219 189 64 194 220 190 65 195 220 190 65 195 221 191 66 196 221 191 66 196 222 192 67 197 222 192 67 197 97 42 7 43 69 68 23 24 223 218 193 198 223 218 193 198 224 219 194 199 224 219 194 199 225 220 195 200 225 220 195 200 226 221 196 201 226 221 196 201 227 222 197 202 227 222 197 202 96 97 43 44 70 69 24 25 228 223 198 203 228 223 198 203 229 224 199 204 229 224 199 204 230 225 200 205 230 225 200 205 231 226 201 206 231 226 201 206 232 227 202 207 232 227 202 207 95 96 44 45 71 70 25 26 233 228 203 208 233 228 203 208 234 229 204 209 234 229 204 209 235 230 205 210 235 230 205 210 236 231 206 211 236 231 206 211 237 232 207 212 237 232 207 212 94 95 45 46 72 71 26 27 238 233 208 213 238 233 208 213 239 234 209 214 239 234 209 214 240 235 210 215 240 235 210 215 241 236 211 216 241 236 211 216 242 237 212 217 242 237 212 217 93 94 46 47 8 72 27 0 118 238 213 48 118 238 213 48 119 239 214 49 119 239 214 49 120 240 215 50 120 240 215 50 121 241 216 51 121 241 216 51 122 242 217 52 122 242 217 52 28 93 47 4 73 21 22 68 243 183 188 218 243 183 188 218 244 184 189 219 244 184 189 219 245 185 190 220 245 185 190 220 246 186 191 221 246 186 191 221 247 187 192 222 247 187 192 222 102 41 42 97 74 73 68 69 248 243 218 223 248 243 218 223 249 244 219 224 249 244 219 224 250 245 220 225 250 245 220 225 251 246 221 226 251 246 221 226 252 247 222 227 252 247 222 227 101 102 97 96 75 74 69 70 253 248 223 228 253 248 223 228 254 249 224 229 254 249 224 229 255 250 225 230 255 250 225 230 256 251 226 231 256 251 226 231 257 252 227 232 257 252 227 232 100 101 96 95 76 75 70 71 258 253 228 233 258 253 228 233 259 254 229 234 259 254 229 234 260 255 230 235 260 255 230 235 261 256 231 236 261 256 231 236 262 257 232 237 262 257 232 237 99 100 95 94 77 76 71 72 263 258 233 238 263 258 233 238 264 259 234 239 264 259 234 239 265 260 235 240 265 260 235 240 266 261 236 241 266 261 236 241 267 262 237 242 267 262 237 242 98 99 94 93 9 77 72 8 123 263 238 118 123 263 238 118 124 264 239 119 124 264 239 119 125 265 240 120 125 265 240 120 126 266 241 121 126 266 241 121 127 267 242 122 127 267 242 122 29 98 93 28 78 20 21 73 268 178 183 243 268 178 183 243 269 179 184 244 269 179 184 244 270 180 185 245 270 180 185 245 271 181 186 246 271 181 186 246 272 182 187 247 272 182 187 247 107 40 41 102 79 78 73 74 273 268 243 248 273 268 243 248 274 269 244 249 274 269 244 249 275 270 245 250 275 270 245 250 276 271 246 251 276 271 246 251 277 272 247 252 277 272 247 252 106 107 102 101 80 79 74 75 278 273 248 253 278 273 248 253 279 274 249 254 279 274 249 254 280 275 250 255 280 275 250 255 281 276 251 256 281 276 251 256 282 277 252 257 282 277 252 257 105 106 101 100 81 80 75 76 283 278 253 258 283 278 253 258 284 279 254 259 284 279 254 259 285 280 255 260 285 280 255 260 286 281 256 261 286 281 256 261 287 282 257 262 287 282 257 262 104 105 100 99 82 81 76 77 288 283 258 263 288 283 258 263 289 284 259 264 289 284 259 264 290 285 260 265 290 285 260 265 291 286 261 266 291 286 261 266 292 287 262 267 292 287 262 267 103 104 99 98 10 82 77 9 128 288 263 123 128 288 263 123 129 289 264 124 129 289 264 124 130 290 265 125 130 290 265 125 131 291 266 126 131 291 266 126 132 292 267 127 132 292 267 127 30 103 98 29 83 19 20 78 293 173 178 268 293 173 178 268 294 174 179 269 294 174 179 269 295 175 180 270 295 175 180 270 296 176 181 271 296 176 181 271 297 177 182 272 297 177 182 272 112 39 40 107 84 83 78 79 298 293 268 273 298 293 268 273 299 294 269 274 299 294 269 274 300 295 270 275 300 295 270 275 301 296 271 276 301 296 271 276 302 297 272 277 302 297 272 277 111 112 107 106 85 84 79 80 303 298 273 278 303 298 273 278 304 299 274 279 304 299 274 279 305 300 275 280 305 300 275 280 306 301 276 281 306 301 276 281 307 302 277 282 307 302 277 282 110 111 106 105 86 85 80 81 308 303 278 283 308 303 278 283 309 304 279 284 309 304 279 284 310 305 280 285 310 305 280 285 311 306 281 286 311 306 281 286 312 307 282 287 312 307 282 287 109 110 105 104 87 86 81 82 313 308 283 288 313 308 283 288 314 309 284 289 314 309 284 289 315 310 285 290 315 310 285 290 316 311 286 291 316 311 286 291 317 312 287 292 317 312 287 292 108 109 104 103 11 87 82 10 133 313 288 128 133 313 288 128 134 314 289 129 134 314 289 129 135 315 290 130 135 315 290 130 136 316 291 131 136 316 291 131 137 317 292 132 137 317 292 132 31 108 103 30 88 18 19 83 318 168 173 293 318 168 173 293 319 169 174 294 319 169 174 294 320 170 175 295 320 170 175 295 321 171 176 296 321 171 176 296 322 172 177 297 322 172 177 297 117 38 39 112 89 88 83 84 323 318 293 298 323 318 293 298 324 319 294 299 324 319 294 299 325 320 295 300 325 320 295 300 326 321 296 301 326 321 296 301 327 322 297 302 327 322 297 302 116 117 112 111 90 89 84 85 328 323 298 303 328 323 298 303 329 324 299 304 329 324 299 304 330 325 300 305 330 325 300 305 331 326 301 306 331 326 301 306 332 327 302 307 332 327 302 307 115 116 111 110 91 90 85 86 333 328 303 308 333 328 303 308 334 329 304 309 334 329 304 309 335 330 305 310 335 330 305 310 336 331 306 311 336 331 306 311 337 332 307 312 337 332 307 312 114 115 110 109 92 91 86 87 338 333 308 313 338 333 308 313 339 334 309 314 339 334 309 314 340 335 310 315 340 335 310 315 341 336 311 316 341 336 311 316 342 337 312 317 342 337 312 317 113 114 109 108 12 92 87 11 138 338 313 133 138 338 313 133 139 339 314 134 139 339 314 134 140 340 315 135 140 340 315 135 141 341 316 136 141 341 316 136 142 342 317 137 142 342 317 137 32 113 108 31 17 2 18 88 163 58 168 318 163 58 168 318 164 59 169 319 164 59 169 319 165 60 170 320 165 60 170 320 166 61 171 321 166 61 171 321 167 62 172 322 167 62 172 322 37 6 38 117 16 17 88 89 158 163 318 323 158 163 318 323 159 164 319 324 159 164 319 324 160 165 320 325 160 165 320 325 161 166 321 326 161 166 321 326 162 167 322 327 162 167 322 327 36 37 117 116 15 16 89 90 153 158 323 328 153 158 323 328 154 159 324 329 154 159 324 329 155 160 325 330 155 160 325 330 156 161 326 331 156 161 326 331 157 162 327 332 157 162 327 332 35 36 116 115 14 15 90 91 148 153 328 333 148 153 328 333 149 154 329 334 149 154 329 334 150 155 330 335 150 155 330 335 151 156 331 336 151 156 331 336 152 157 332 337 152 157 332 337 34 35 115 114 13 14 91 92 143 148 333 338 143 148 333 338 144 149 334 339 144 149 334 339 145 150 335 340 145 150 335 340 146 151 336 341 146 151 336 341 147 152 337 342 147 152 337 342 33 34 114 113 1 13 92 12 53 143 338 138 53 143 338 138 54 144 339 139 54 144 339 139 55 145 340 140 55 145 340 140 56 146 341 141 56 146 341 141 57 147 342 142 57 147 342 142 5 33 113 32 </DataArray>
<DataArray type="Int32" Name="offsets" format="ascii">
8 16 24 32 40 48 56 64 72 80 88 96 104 112 120 128 136 144 152 160 168 176 184 192 200 208 216 224 232 240 248 256 264 272 280 288 296 304 312 320 328 336 344 352 360 368 376 384 392 400 408 416 424 432 440 448 456 464 472 480 488 496 504 512 520 528 536 544 552 560 568 576 584 592 600 608 616 624 632 640 648 656 664 672 680 688 696 704 712 720 728 736 744 752 760 768 776 784 792 800 808 816 824 832 840 848 856 864 872 880 888 896 904 912 920 928 936 944 952 960 968 976 984 992 1000 1008 1016 1024 1032 1040 1048 1056 1064 1072 1080 1088 1096 1104 1112 1120 1128 1136 1144 1152 1160 1168 1176 1184 1192 1200 1208 1216 1224 1232 1240 1248 1256 1264 1272 1280 1288 1296 1304 1312 1320 1328 1336 1344 1352 1360 1368 1376 1384 1392 1400 1408 1416 1424 1432 1440 1448 1456 1464 1472 1480 1488 1496 1504 1512 1520 1528 1536 1544 1552 1560 1568 1576 1584 1592 1600 1608 1616 1624 1632 1640 1648 1656 1664 1672 1680 1688 1696 1704 1712 1720 1728 </DataArray>
<DataArray type="UInt8" Name="types" format="ascii">
12 12 12 12 12 12 12 12 12 12 12 12 12 12 12 12 12 12 12 12 12 12 12 12 12 12 12 12 12 12 12 12 12 12 12 12 12 12 12 12 12 12 12 12 12 12 12 12 12 12 12 12 12 12 12 12 12 12 12 12 12 12 12 12 12 12 12 12 12 12 12 12 12 12 12 12 12 12 12 12 12 12 12 12 12 12 12 12 12 12 12 12 12 12 12 12 12 12 12 12 12 12 12 12 12 12 12 12 12 12 12 12 12 12 12 12 12 12 12 12 12 12 12 12 12 12 12 12 12 12 12 12 12 12 12 12 12 12 12 12 12 12 12 12 12 12 12 12 12 12 12 12 12 12 12 12 12 12 12 12 12 12 12 12 12 12 12 12 12 12 12 12 12 12 12 12 12 12 12 12 12 12 12 12 12 12 12 12 12 12 12 12 12 12 12 12 12 12 12 12 12 12 12 12 12 12 12 12 12 12 12 12 12 12 12 12 </DataArray>
</Cells>
<CellData Scalars="scalars">
<DataArray type="Float32" Name="number_density" format="ascii">
1.08e+16 8.64e+15 1.08e+16 1.08e+16 8.64e+15 8.64e+15 1.296e+16 1.728e+16 1.08e+16 6.48e+15 8.64e+15 1.08e+16 2.16e+16 1.08e+16 1.512e+16 1.08e+16 8.64e+15 4.32e+15 1.296e+16 8.64e+15 2.16e+15 2.16e+15 2.376e+16 4.32e+15 4.32e+15 4.32e+15 8.64e+15 1.512e+16 1.08e+16 8.64e+15 1.512e+16 6.48e+15 2.16e+15 1.296e+16 1.296e+16 2.16e+16 1.296e+16 1.08e+16 8.64e+15 8.64e+15 6.48e+15 6.48e+15 1.08e+16 1.296e+16 1.08e+16 8.64e+15 1.08e+16 4.32e+15 1.08e+16 1.728e+16 8.64e+15 1.512e+16 1.728e+16 1.08e+16 1.296e+16 6.48e+15 1.512e+16 1.512e+16 1.512e+16 1.728e+16 1.512e+16 4.32e+15 1.296e+16 4.32e+15 4.32e+15 4.32e+15 1.512e+16 4.32e+15 2.16e+15 8.64e+15 8.64e+15 4.32e+15 1.728e+16 8.64e+15 2.16e+15 6.48e+15 8.64e+15 1.728e+16 8.64e+15 8.64e+15 2.16e+16 6.48e+15 8.64e+15 8.64e+15 1.728e+16 8.64e+15 1.08e+16 1.08e+16 4.32e+15 1.512e+16 1.728e+16 2.16e+15 1.512e+16 1.296e+16 6.48e+15 1.296e+16 1.08e+16 8.64e+15 6.48e+15 8.64e+15 2.16e+15 6.48e+15 1.512e+16 1.08e+16 4.32e+15 1.944e+16 2.16e+15 1.728e+16 8.64e+15 8.64e+15 1.296e+16 8.64e+15 2.16e+16 6.48e+15 1.296e+16 8.64e+15 1.512e+16 1.512e+16 1.512e+16 1.296e+16 8.64e+15 6.48e+15 1.08e+16 1.08e+16 6.48e+15 2.16e+15 6.48e+15 4.32e+15 6.48e+15 8.64e+15 1.512e+16 8.64e+15 1.728e+16 6.48e+15 0 6.48e+15 1.296e+16 8.64e+15 2.16e+15 6.48e+15 1.296e+16 1.08e+16 2.16e+15 1.296e+16 1.296e+16 1.08e+16 1.08e+16 1.728e+16 6.48e+15 1.08e+16 1.296e+16 2.16e+15 6.48e+15 1.296e+16 6.48e+15 1.512e+16 8.64e+15 8.64e+15 8.64e+15 1.08e+16 1.296e+16 2.16e+15 1.08e+16 1.296e+16 1.728e+16 1.728e+16 6.48e+15 6.48e+15 1.512e+16 1.296e+16 1.08e+16 4.32e+15 4.32e+15 1.944e+16 1.08e+16 6.48e+15 1.08e+16 1.08e+16 4.32e+15 6.48e+15 1.296e+16 4.32e+15 1.944e+16 6.48e+15 4.32e+15 1.296e+16 2.16e+15 1.296e+16 4.32e+15 6.48e+15 1.296e+16 1.296e+16 6.48e+15 1.296e+16 1.08e+16 1.296e+16 1.296e+16 1.296e+16 1.08e+16 6.48e+15 8.64e+15 8.64e+15 6.48e+15 4.32e+15 1.944e+16 8.64e+15 1.296e+16 1.296e+16 1.296e+16 4.32e+15 6.48e+15 6.48e+15 6.48e+15 8.64e+15 8.64e+15 1.296e+16 </DataArray>
<DataArray type="Float32" Name="potential" format="ascii">
0 0 0 0 0 0 0 0 0 0 0 0 0 0 0 0 0 0 0 0 0 0 0 0 0 0 0 0 0 0 0 0 0 0 0 0 0 0 0 0 0 0 0 0 0 0 0 0 0 0 0 0 0 0 0 0 0 0 0 0 0 0 0 0 0 0 0 0 0 0 0 0 0 0 0 0 0 0 0 0 0 0 0 0 0 0 0 0 0 0 0 0 0 0 0 0 0 0 0 0 0 0 0 0 0 0 0 0 0 0 0 0 0 0 0 0 0 0 0 0 0 0 0 0 0 0 0 0 0 0 0 0 0 0 0 0 0 0 0 0 0 0 0 0 0 0 0 0 0 0 0 0 0 0 0 0 0 0 0 0 0 0 0 0 0 0 0 0 0 0 0 0 0 0 0 0 0 0 0 0 0 0 0 0 0 0 0 0 0 0 0 0 0 0 0 0 0 0 0 0 0 0 0 0 0 0 0 0 0 0 0 0 0 0 0 0 </DataArray>
<DataArray type="Float32" Name="temperature" format="ascii">
199.412 246.789 91.9772 409.176 243.981 438.979 298.304 336.411 390.285 265.264 253.813 156.57 415.01 211.173 156.651 270.454 124.386 70.6168 309.266 183.088 2.12249e-15 1.23133e-14 281.901 93.9316 129.362 12.2417 126.791 340.459 369.026 48.0485 228.218 129.629 1e-15 215.358 371.186 242.527 173.545 226.959 249.233 178.052 107.883 277.892 255.61 153.894 425.629 266.703 217.147 297.904 380.186 235.226 166.605 148.213 355.633 149.164 332.154 101.162 286.32 130.65 252.079 423.371 416.832 396.274 393.937 110.475 202.045 249.368 336.958 216.97 3.52731e-14 285.093 286.36 55.5424 293.705 211.825 1e-15 181.698 350.579 266.118 139.054 315.447 270.537 120.861 206.357 254.532 233.92 155.637 218.411 483.772 74.6215 269.387 229.304 2.39599e-14 263.856 249.742 385.56 248.275 192.396 52.4466 581.318 199.054 9.93295e-14 52.8802 352.127 296.851 400.348 268.806 1e-15 264.194 148.202 323.416 225.25 207.446 350.767 394.175 414.075 165.581 507.999 303.716 203.5 394.741 115.442 195.505 217.845 405.739 82.3918 1e-15 135.358 227.287 184.189 198.292 287.579 123.576 287.366 546.295 0 229.887 97.1527 525.466 1e-15 113.865 229.625 327.656 1e-15 267.329 218.499 226.373 221.126 182.035 299.192 276.292 378.675 1e-15 344.153 477.087 294.613 210.152 375.98 231.867 373.565 153.872 442.53 1e-15 372.064 156.085 338.024 278.129 303.78 206.719 153.752 222.064 422.601 222.917 437.246 273.318 236.171 255.848 276.552 277.51 159.336 86.1928 244.746 173.158 267.722 208.831 45.9372 228.349 1e-15 197.294 44.6246 146.156 249.686 320.477 237.697 489.382 451.039 234.959 345.235 354.708 230.694 90.1598 226.293 233.832 44.4156 190.092 371.909 319.058 257.196 417.406 272.87 83.2044 172.087 329.073 81.9383 329.308 149.131 198.61 </DataArray>
<DataArray type="Float32" Name="velocity" format="ascii">
72.5433 79.3135 206.727 175.836 157.353 237.251 160.301 199.538 412.932 304.747 322.359 267.814 190.004 194.458 174.265 404.191 80.463 364.703 36.5403 227.476 346.513 848.641 258.974 220.035 144.359 282.368 326.609 126.96 178.784 322.936 90.1121 57.4365 667.391 163.251 226.459 47.3179 142.213 104.666 240.018 85.6296 325.285 215.427 91.0906 172.601 208.621 278.866 156.696 424.98 292.253 332.047 98.1692 395.434 208.999 33.1376 115.878 229.09 452.073 445.675 112.56 190.203 312.908 212.224 324.568 126.73 537.12 272.877 88.0036 504.521 432.754 336.93 126.038 194.576 167.042 288.637 484.056 97.7678 149.158 98.8461 465.834 387.142 321.837 153.29 294.561 295.183 173.708 466.821 674.357 500.441 189.831 209.538 326.784 545.968 386.893 532.863 370.245 277.265 269.204 230.967 193.659 344.495 599.292 201.602 134.484 280.687 338.807 93.0101 540.457 119.286 291.366 160.496 83.3877 211.567 74.9256 242.272 213.939 373.402 209.713 231.458 217.879 171.684 275.55 498.111 407.124 321.474 643.503 530.571 497.189 541.545 477.312 274.702 294.925 114.854 153.339 332.513 0 222.89 190.811 329.198 446.597 127.559 167.958 309.926 218.114 218.251 150.651 76.5928 370.203 114.04 189.709 318.112 166.363 619.231 190.125 108.764 176.37 162.536 259.802 224.74 372.978 225.723 175.608 391.542 262.969 221.301 231.906 280.774 470.375 293.082 154.238 180.39 256.964 119.794 495.443 141.141 204.235 277.419 131.945 241.747 402.387 355.535 151.989 251.009 123.904 349.845 205.707 160.19 409.497 87.8753 192.39 54.2855 108.758 246.032 221.751 102.015 140.542 129.542 156.225 178.247 116.453 213.969 326.199 210.178 212.011 320.234 71.2825 178.028 241.044 269.931 236.281 525.851 34.3462 400.221 298.685 49.8563 200.179 145.886 </DataArray>
<DataArray type="Float32" Name="E_field" format="ascii">
0 0 0 0 0 0 0 0 0 0 0 0 0 0 0 0 0 0 0 0 0 0 0 0 0 0 0 0 0 0 0 0 0 0 0 0 0 0 0 0 0 0 0 0 0 0 0 0 0 0 0 0 0 0 0 0 0 0 0 0 0 0 0 0 0 0 0 0 0 0 0 0 0 0 0 0 0 0 0 0 0 0 0 0 0 0 0 0 0 0 0 0 0 0 0 0 0 0 0 0 0 0 0 0 0 0 0 0 0 0 0 0 0 0 0 0 0 0 0 0 0 0 0 0 0 0 0 0 0 0 0 0 0 0 0 0 0 0 0 0 0 0 0 0 0 0 0 0 0 0 0 0 0 0 0 0 0 0 0 0 0 0 0 0 0 0 0 0 0 0 0 0 0 0 0 0 0 0 0 0 0 0 0 0 0 0 0 0 0 0 0 0 0 0 0 0 0 0 0 0 0 0 0 0 0 0 0 0 0 0 0 0 0 0 0 0 </DataArray>
</CellData>
<PointData Scalars="number_density">
<DataArray type="Float32" Name="number_density" format="ascii">
1.512e+16 6.48e+15 1.296e+16 1.08e+16 2.16e+16 1.296e+16 1.296e+16 8.64e+15 1.512e+16 1.512e+16 8.64e+15 6.48e+15 8.64e+15 1.296e+16 1.512e+16 8.64e+15 4.32e+15 7.56e+15 1.296e+16 1.08e+16 1.296e+16 1.512e+16 1.188e+16 1.188e+16 1.728e+16 1.728e+16 8.64e+15 9.72e+15 1.296e+16 1.08e+16 1.512e+16 9.72e+15 9.72e+15 8.64e+15 4.32e+15 8.64e+15 1.296e+16 1.296e+16 1.188e+16 8.64e+15 1.188e+16 1.188e+16 7.56e+15 9.72e+15 7.56e+15 4.32e+15 6.48e+15 1.512e+16 1.08e+16 4.32e+15 7.56e+15 1.296e+16 1.728e+16 6.48e+15 6.48e+15 7.56e+15 8.64e+15 1.08e+16 8.64e+15 1.188e+16 1.296e+16 5.4e+15 8.64e+15 9.72e+15 9.72e+15 1.08e+16 9.72e+15 8.64e+15 1.188e+16 1.404e+16 1.458e+16 1.134e+16 1.242e+16 1.242e+16 1.188e+16 1.458e+16 1.404e+16 1.404e+16 1.188e+16 1.188e+16 1.242e+16 1.296e+16 1.134e+16 1.188e+16 1.08e+16 8.64e+15 1.242e+16 1.134e+16 1.026e+16 7.56e+15 9.18e+15 1.404e+16 1.296e+16 9.72e+15 8.64e+15 9.18e+15 7.56e+15 7.56e+15 8.1e+15 1.026e+16 1.404e+16 9.72e+15 9.18e+15 1.134e+16 9.18e+15 9.72e+15 9.72e+15 1.134e+16 1.188e+16 1.08e+16 4.86e+15 8.1e+15 1.134e+16 1.08e+16 8.64e+15 6.48e+15 1.08e+16 1.296e+16 1.026e+16 3.78e+15 6.48e+15 1.08e+16 1.188e+16 1.134e+16 5.4e+15 8.64e+15 9.72e+15 8.1e+15 8.64e+15 8.64e+15 1.188e+16 8.64e+15 8.64e+15 6.48e+15 9.18e+15 1.134e+16 7.02e+15 6.48e+15 7.56e+15 7.56e+15 9.18e+15 8.1e+15 8.1e+15 1.026e+16 8.64e+15 1.026e+16 1.08e+16 9.72e+15 1.134e+16 9.18e+15 1.08e+16 1.026e+16 7.02e+15 9.18e+15 9.72e+15 1.026e+16 1.026e+16 9.18e+15 8.64e+15 1.026e+16 8.64e+15 1.134e+16 1.296e+16 8.1e+15 1.026e+16 9.18e+15 7.56e+15 1.08e+16 1.026e+16 1.134e+16 1.35e+16 8.64e+15 8.64e+15 1.026e+16 1.08e+16 1.242e+16 1.35e+16 1.134e+16 1.08e+16 8.1e+15 7.56e+15 1.134e+16 1.35e+16 1.242e+16 7.56e+15 6.48e+15 7.56e+15 9.72e+15 1.08e+16 9.72e+15 9.72e+15 8.64e+15 7.56e+15 1.242e+16 1.188e+16 9.72e+15 8.64e+15 9.18e+15 1.566e+16 1.35e+16 1.08e+16 8.64e+15 8.1e+15 1.35e+16 9.18e+15 7.56e+15 1.134e+16 1.026e+16 7.56e+15 5.94e+15 7.02e+15 1.296e+16 1.188e+16 7.56e+15 5.4e+15 9.72e+15 1.296e+16 1.35e+16 1.215e+16 1.134e+16 9.45e+15 8.64e+15 8.1e+15 1.431e+16 1.296e+16 1.08e+16 1.08e+16 9.45e+15 1.269e+16 1.053e+16 1.053e+16 1.35e+16 1.269e+16 8.64e+15 7.83e+15 9.45e+15 1.134e+16 1.107e+16 8.64e+15 5.67e+15 8.37e+15 9.72e+15 9.45e+15 1.134e+16 1.053e+16 9.18e+15 8.1e+15 8.91e+15 1.188e+16 1.242e+16 1.161e+16 1.026e+16 9.99e+15 1.161e+16 1.053e+16 1.296e+16 1.215e+16 1.242e+16 9.72e+15 8.91e+15 1.134e+16 8.64e+15 8.64e+15 1.053e+16 6.75e+15 8.37e+15 7.29e+15 6.21e+15 1.026e+16 1.08e+16 1.107e+16 1.134e+16 1.242e+16 9.99e+15 1.134e+16 1.269e+16 9.72e+15 9.18e+15 8.91e+15 8.1e+15 1.08e+16 9.45e+15 8.91e+15 9.18e+15 6.21e+15 8.1e+15 9.18e+15 9.18e+15 9.72e+15 7.02e+15 8.64e+15 8.1e+15 8.1e+15 9.72e+15 9.45e+15 1.242e+16 1.296e+16 1.188e+16 8.64e+15 8.37e+15 1.134e+16 1.134e+16 9.18e+15 8.37e+15 9.45e+15 1.134e+16 1.107e+16 7.56e+15 1.08e+16 8.91e+15 8.91e+15 9.45e+15 1.026e+16 9.72e+15 8.37e+15 8.37e+15 7.02e+15 8.91e+15 8.91e+15 8.91e+15 1.053e+16 9.18e+15 1.026e+16 8.37e+15 8.37e+15 9.18e+15 1.107e+16 1.107e+16 9.72e+15 1.08e+16 1.188e+16 1.107e+16 8.1e+15 1.215e+16 1.134e+16 1.161e+16 9.18e+15 8.1e+15 1.08e+16 9.45e+15 9.72e+15 8.37e+15 9.18e+15 </DataArray>
<DataArray type="Float32" Name="potential" format="ascii">
0 0 0 0 0 0 0 0 0 0 0 0 0 0 0 0 0 0 0 0 0 0 0 0 0 0 0 0 0 0 0 0 0 0 0 0 0 0 0 0 0 0 0 0 0 0 0 0 0 0 0 0 0 0 0 0 0 0 0 0 0 0 0 0 0 0 0 0 0 0 0 0 0 0 0 0 0 0 0 0 0 0 0 0 0 0 0 0 0 0 0 0 0 0 0 0 0 0 0 0 0 0 0 0 0 0 0 0 0 0 0 0 0 0 0 0 0 0 0 0 0 0 0 0 0 0 0 0 0 0 0 0 0 0 0 0 0 0 0 0 0 0 0 0 0 0 0 0 0 0 0 0 0 0 0 0 0 0 0 0 0 0 0 0 0 0 0 0 0 0 0 0 0 0 0 0 0 0 0 0 0 0 0 0 0 0 0 0 0 0 0 0 0 0 0 0 0 0 0 0 0 0 0 0 0 0 0 0 0 0 0 0 0 0 0 0 0 0 0 0 0 0 0 0 0 0 0 0 0 0 0 0 0 0 0 0 0 0 0 0 0 0 0 0 0 0 0 0 0 0 0 0 0 0 0 0 0 0 0 0 0 0 0 0 0 0 0 0 0 0 0 0 0 0 0 0 0 0 0 0 0 0 0 0 0 0 0 0 0 0 0 0 0 0 0 0 0 0 0 0 0 0 0 0 0 0 0 0 0 0 0 0 0 0 0 0 0 0 0 0 0 0 0 0 0 0 0 0 0 0 0 0 0 0 0 0 0 0 0 0 0 0 0 </DataArray>
<DataArray type="Float32" Name="temperature" format="ascii">