<VTKFile type="UnstructuredGrid" version="0.1" byte_order="LittleEndian">
<UnstructuredGrid>
<Piece NumberOfPoints="343" NumberOfCells="216">
<Points>
<DataArray type="Float32" NumberOfComponents="3" format="ascii">
-0.05 -0.05 -0.05 0.05 -0.05 -0.05 0.05 0.05 -0.05 -0.05 0.05 -0.05 -0.05 -0.05 0.05 0.05 -0.05 0.05 0.05 0.05 0.05 -0.05 0.05 0.05 -0.0333333 -0.05 -0.05 -0.0166667 -0.05 -0.05 0 -0.05 -0.05 0.0166667 -0.05 -0.05 0.0333333 -0.05 -0.05 0.05 -0.0333333 -0.05 0.05 -0.0166667 -0.05 0.05 0 -0.05 0.05 0.0166667 -0.05 0.05 0.0333333 -0.05 0.0333333 0.05 -0.05 0.0166667 0.05 -0.05 0 0.05 -0.05 -0.0166667 0.05 -0.05 -0.0333333 0.05 -0.05 -0.05 0.0333333 -0.05 -0.05 0.0166667 -0.05 -0.05 0 -0.05 -0.05 -0.0166667 -0.05 -0.05 -0.0333333 -0.05 -0.0333333 -0.05 0.05 -0.0166667 -0.05 0.05 0 -0.05 0.05 0.0166667 -0.05 0.05 0.0333333 -0.05 0.05 0.05 -0.0333333 0.05 0.05 -0.0166667 0.05 0.05 0 0.05 0.05 0.0166667 0.05 0.05 0.0333333 0.05 0.0333333 0.05 0.05 0.0166667 0.05 0.05 0 0.05 0.05 -0.0166667 0.05 0.05 -0.0333333 0.05 0.05 -0.05 0.0333333 0.05 -0.05 0.0166667 0.05 -0.05 0 0.05 -0.05 -0.0166667 0.05 -0.05 -0.0333333 0.05 -0.05 -0.05 -0.0333333 -0.05 -0.05 -0.0166667 -0.05 -0.05 0 -0.05 -0.05 0.0166667 -0.05 -0.05 0.0333333 0.05 -0.05 -0.0333333 0.05 -0.05 -0.0166667 0.05 -0.05 0 0.05 -0.05 0.0166667 0.05 -0.05 0.0333333 0.05 0.05 -0.0333333 0.05 0.05 -0.0166667 0.05 0.05 0 0.05 0.05 0.0166667 0.05 0.05 0.0333333 -0.05 0.05 -0.0333333 -0.05 0.05 -0.0166667 -0.05 0.05 0 -0.05 0.05 0.0166667 -0.05 0.05 0.0333333 -0.0333333 0.0333333 -0.05 -0.0333333 0.0166667 -0.05 -0.0333333 -3.55271e-18 -0.05 -0.0333333 -0.0166667 -0.05 -0.0333333 -0.0333333 -0.05 -0.0166667 0.0333333 -0.05 -0.0166667 0.0166667 -0.05 -0.0166667 -7.10543e-18 -0.05 -0.0166667 -0.0166667 -0.05 -0.0166667 -0.0333333 -0.05 1.77636e-18 0.0333333 -0.05 5.32907e-18 0.0166667 -0.05 3.55271e-18 -1.77636e-18 -0.05 7.10543e-18 -0.0166667 -0.05 3.55271e-18 -0.0333333 -0.05 0.0166667 0.0333333 -0.05 0.0166667 0.0166667 -0.05 0.0166667 -7.10543e-18 -0.05 0.0166667 -0.0166667 -0.05 0.0166667 -0.0333333 -0.05 0.0333333 0.0333333 -0.05 0.0333333 0.0166667 -0.05 0.0333333 -1.77636e-18 -0.05 0.0333333 -0.0166667 -0.05 0.0333333 -0.0333333 -0.05 -0.0333333 -0.0333333 0.05 -0.0333333 -0.0166667 0.05 -0.0333333 0 0.05 -0.0333333 0.0166667 0.05 -0.0333333 0.0333333 0.05 -0.0166667 -0.0333333 0.05 -0.0166667 -0.0166667 0.05 -0.0166667 0 0.05 -0.0166667 0.0166667 0.05 -0.0166667 0.0333333 0.05 0 -0.0333333 0.05 0 -0.0166667 0.05 0 0 0.05 0 0.0166667 0.05 0 0.0333333 0.05 0.0166667 -0.0333333 0.05 0.0166667 -0.0166667 0.05 0.0166667 0 0.05 0.0166667 0.0166667 0.05 0.0166667 0.0333333 0.05 0.0333333 -0.0333333 0.05 0.0333333 -0.0166667 0.05 0.0333333 1.77636e-18 0.05 0.0333333 0.0166667 0.05 0.0333333 0.0333333 0.05 -0.0333333 -0.05 -0.0333333 -0.0333333 -0.05 -0.0166667 -0.0333333 -0.05 0 -0.0333333 -0.05 0.0166667 -0.0333333 -0.05 0.0333333 -0.0166667 -0.05 -0.0333333 -0.0166667 -0.05 -0.0166667 -0.0166667 -0.05 0 -0.0166667 -0.05 0.0166667 -0.0166667 -0.05 0.0333333 0 -0.05 -0.0333333 0 -0.05 -0.0166667 0 -0.05 0 0 -0.05 0.0166667 0 -0.05 0.0333333 0.0166667 -0.05 -0.0333333 0.0166667 -0.05 -0.0166667 0.0166667 -0.05 0 0.0166667 -0.05 0.0166667 0.0166667 -0.05 0.0333333 0.0333333 -0.05 -0.0333333 0.0333333 -0.05 -0.0166667 0.0333333 -0.05 1.77636e-18 0.0333333 -0.05 0.0166667 0.0333333 -0.05 0.0333333 0.05 -0.0333333 -0.0333333 0.05 -0.0333333 -0.0166667 0.05 -0.0333333 0 0.05 -0.0333333 0.0166667 0.05 -0.0333333 0.0333333 0.05 -0.0166667 -0.0333333 0.05 -0.0166667 -0.0166667 0.05 -0.0166667 0 0.05 -0.0166667 0.0166667 0.05 -0.0166667 0.0333333 0.05 0 -0.0333333 0.05 0 -0.0166667 0.05 0 0 0.05 0 0.0166667 0.05 0 0.0333333 0.05 0.0166667 -0.0333333 0.05 0.0166667 -0.0166667 0.05 0.0166667 0 0.05 0.0166667 0.0166667 0.05 0.0166667 0.0333333 0.05 0.0333333 -0.0333333 0.05 0.0333333 -0.0166667 0.05 0.0333333 1.77636e-18 0.05 0.0333333 0.0166667 0.05 0.0333333 0.0333333 0.0333333 0.05 -0.0333333 0.0333333 0.05 -0.0166667 0.0333333 0.05 0 0.0333333 0.05 0.0166667 0.0333333 0.05 0.0333333 0.0166667 0.05 -0.0333333 0.0166667 0.05 -0.0166667 0.0166667 0.05 0 0.0166667 0.05 0.0166667 0.0166667 0.05 0.0333333 0 0.05 -0.0333333 0 0.05 -0.0166667 0 0.05 0 0 0.05 0.0166667 0 0.05 0.0333333 -0.0166667 0.05 -0.0333333 -0.0166667 0.05 -0.0166667 -0.0166667 0.05 0 -0.0166667 0.05 0.0166667 -0.0166667 0.05 0.0333333 -0.0333333 0.05 -0.0333333 -0.0333333 0.05 -0.0166667 -0.0333333 0.05 1.77636e-18 -0.0333333 0.05 0.0166667 -0.0333333 0.05 0.0333333 -0.05 0.0333333 -0.0333333 -0.05 0.0333333 -0.0166667 -0.05 0.0333333 0 -0.05 0.0333333 0.0166667 -0.05 0.0333333 0.0333333 -0.05 0.0166667 -0.0333333 -0.05 0.0166667 -0.0166667 -0.05 0.0166667 0 -0.05 0.0166667 0.0166667 -0.05 0.0166667 0.0333333 -0.05 0 -0.0333333 -0.05 0 -0.0166667 -0.05 0 0 -0.05 0 0.0166667 -0.05 0 0.0333333 -0.05 -0.0166667 -0.0333333 -0.05 -0.0166667 -0.0166667 -0.05 -0.0166667 0 -0.05 -0.0166667 0.0166667 -0.05 -0.0166667 0.0333333 -0.05 -0.0333333 -0.0333333 -0.05 -0.0333333 -0.0166667 -0.05 -0.0333333 1.77636e-18 -0.05 -0.0333333 0.0166667 -0.05 -0.0333333 0.0333333 -0.0333333 0.0333333 -0.0333333 -0.0333333 0.0333333 -0.0166667 -0.0333333 0.0333333 4.44089e-19 -0.0333333 0.0333333 0.0166667 -0.0333333 0.0333333 0.0333333 -0.0333333 0.0166667 -0.0333333 -0.0333333 0.0166667 -0.0166667 -0.0333333 0.0166667 -4.44089e-18 -0.0333333 0.0166667 0.0166667 -0.0333333 0.0166667 0.0333333 -0.0333333 -6.66134e-18 -0.0333333 -0.0333333 -9.76996e-18 -0.0166667 -0.0333333 -1.77636e-18 -1.77636e-18 -0.0333333 -1.77636e-18 0.0166667 -0.0333333 3.55271e-18 0.0333333 -0.0333333 -0.0166667 -0.0333333 -0.0333333 -0.0166667 -0.0166667 -0.0333333 -0.0166667 1.77636e-18 -0.0333333 -0.0166667 0.0166667 -0.0333333 -0.0166667 0.0333333 -0.0333333 -0.0333333 -0.0333333 -0.0333333 -0.0333333 -0.0166667 -0.0333333 -0.0333333 0 -0.0333333 -0.0333333 0.0166667 -0.0333333 -0.0333333 0.0333333 -0.0166667 0.0333333 -0.0333333 -0.0166667 0.0333333 -0.0166667 -0.0166667 0.0333333 2.66454e-18 -0.0166667 0.0333333 0.0166667 -0.0166667 0.0333333 0.0333333 -0.0166667 0.0166667 -0.0333333 -0.0166667 0.0166667 -0.0166667 -0.0166667 0.0166667 -1.77636e-18 -0.0166667 0.0166667 0.0166667 -0.0166667 0.0166667 0.0333333 -0.0166667 -1.06581e-17 -0.0333333 -0.0166667 -1.15463e-17 -0.0166667 -0.0166667 -3.55271e-18 0 -0.0166667 -8.88178e-18 0.0166667 -0.0166667 -1.77636e-18 0.0333333 -0.0166667 -0.0166667 -0.0333333 -0.0166667 -0.0166667 -0.0166667 -0.0166667 -0.0166667 3.55271e-18 -0.0166667 -0.0166667 0.0166667 -0.0166667 -0.0166667 0.0333333 -0.0166667 -0.0333333 -0.0333333 -0.0166667 -0.0333333 -0.0166667 -0.0166667 -0.0333333 0 -0.0166667 -0.0333333 0.0166667 -0.0166667 -0.0333333 0.0333333 3.44169e-18 0.0333333 -0.0333333 1.02141e-17 0.0333333 -0.0166667 2.66454e-18 0.0333333 -8.88178e-19 6.21725e-18 0.0333333 0.0166667 1.33227e-18 0.0333333 0.0333333 7.99361e-18 0.0166667 -0.0333333 8.43769e-18 0.0166667 -0.0166667 8.88178e-19 0.0166667 8.88178e-19 7.99361e-18 0.0166667 0.0166667 3.55271e-18 0.0166667 0.0333333 3.55271e-18 -1.77636e-18 -0.0333333 9.76996e-18 -9.76996e-18 -0.0166667 0 -8.88178e-19 -8.88178e-19 8.88178e-18 -8.88178e-18 0.0166667 1.77636e-18 -1.77636e-18 0.0333333 1.02141e-17 -0.0166667 -0.0333333 1.24345e-17 -0.0166667 -0.0166667 3.55271e-18 -0.0166667 -1.77636e-18 8.88178e-18 -0.0166667 0.0166667 3.55271e-18 -0.0166667 0.0333333 5.77316e-18 -0.0333333 -0.0333333 4.44089e-18 -0.0333333 -0.0166667 1.77636e-18 -0.0333333 1.77636e-18 5.32907e-18 -0.0333333 0.0166667 0 -0.0333333 0.0333333 0.0166667 0.0333333 -0.0333333 0.0166667 0.0333333 -0.0166667 0.0166667 0.0333333 -2.66454e-18 0.0166667 0.0333333 0.0166667 0.0166667 0.0333333 0.0333333 0.0166667 0.0166667 -0.0333333 0.0166667 0.0166667 -0.0166667 0.0166667 0.0166667 3.10862e-18 0.0166667 0.0166667 0.0166667 0.0166667 0.0166667 0.0333333 0.0166667 -1.24345e-17 -0.0333333 0.0166667 -1.37668e-17 -0.0166667 0.0166667 -3.55271e-18 -1.77636e-18 0.0166667 -6.21725e-18 0.0166667 0.0166667 -8.88178e-19 0.0333333 0.0166667 -0.0166667 -0.0333333 0.0166667 -0.0166667 -0.0166667 0.0166667 -0.0166667 2.66454e-18 0.0166667 -0.0166667 0.0166667 0.0166667 -0.0166667 0.0333333 0.0166667 -0.0333333 -0.0333333 0.0166667 -0.0333333 -0.0166667 0.0166667 -0.0333333 0 0.0166667 -0.0333333 0.0166667 0.0166667 -0.0333333 0.0333333 0.0333333 0.0333333 -0.0333333 0.0333333 0.0333333 -0.0166667 0.0333333 0.0333333 3.33067e-19 0.0333333 0.0333333 0.0166667 0.0333333 0.0333333 0.0333333 0.0333333 0.0166667 -0.0333333 0.0333333 0.0166667 -0.0166667 0.0333333 0.0166667 1.11022e-18 0.0333333 0.0166667 0.0166667 0.0333333 0.0166667 0.0333333 0.0333333 -4.44089e-18 -0.0333333 0.0333333 -4.21885e-18 -0.0166667 0.0333333 8.88178e-19 8.88178e-19 0.0333333 -1.33227e-18 0.0166667 0.0333333 3.55271e-18 0.0333333 0.0333333 -0.0166667 -0.0333333 0.0333333 -0.0166667 -0.0166667 0.0333333 -0.0166667 2.22045e-18 0.0333333 -0.0166667 0.0166667 0.0333333 -0.0166667 0.0333333 0.0333333 -0.0333333 -0.0333333 0.0333333 -0.0333333 -0.0166667 0.0333333 -0.0333333 2.22045e-18 0.0333333 -0.0333333 0.0166667 0.0333333 -0.0333333 0.0333333 </DataArray>
</Points>
<Cells>
<DataArray type="Int32" Name="connectivity" format="ascii">
68 22 3 23 218 188 63 193 218 188 63 193 219 189 64 194 219 189 64 194 220 190 65 195 220 190 65 195 221 191 66 196 221 191 66 196 222 192 67 197 222 192 67 197 97 42 7 43 69 68 23 24 223 218 193 198 223 218 193 198 224 219 194 199 224 219 194 199 225 220 195 200 225 220 195 200 226 221 196 201 226 221 196 201 227 222 197 202 227 222 197 202 96 97 43 44 70 69 24 25 228 223 198 203 228 223 198 203 229 224 199 204 229 224 199 204 230 225 200 205 230 225 200 205 231 226 201 206 231 226 201 206 232 227 202 207 232 227 202 207 95 96 44 45 71 70 25 26 233 228 203 208 233 228 203 208 234 229 204 209 234 229 204 209 235 230 205 210 235 230 205 210 236 231 206 211 236 231 206 211 237 232 207 212 237 232 207 212 94 95 45 46 72 71 26 27 238 233 208 213 238 233 208 213 239 234 209 214 239 234 209 214 240 235 210 215 240 235 210 215 241 236 211 216 241 236 211 216 242 237 212 217 242 237 212 217 93 94 46 47 8 72 27 0 118 238 213 48 118 238 213 48 119 239 214 49 119 239 214 49 120 240 215 50 120 240 215 50 121 241 216 51 121 241 216 51 122 242 217 52 122 242 217 52 28 93 47 4 73 21 22 68 243 183 188 218 243 183 188 218 244 184 189 219 244 184 189 219 245 185 190 220 245 185 190 220 246 186 191 221 246 186 191 221 247 187 192 222 247 187 192 222 102 41 42 97 74 73 68 69 248 243 218 223 248 243 218 223 249 244 219 224 249 244 219 224 250 245 220 225 250 245 220 225 251 246 221 226 251 246 221 226 252 247 222 227 252 247 222 227 101 102 97 96 75 74 69 70 253 248 223 228 253 248 223 228 254 249 224 229 254 249 224 229 255 250 225 230 255 250 225 230 256 251 226 231 256 251 226 231 257 252 227 232 257 252 227 232 100 101 96 95 76 75 70 71 258 253 228 233 258 253 228 233 259 254 229 234 259 254 229 234 260 255 230 235 260 255 230 235 261 256 231 236 261 256 231 236 262 257 232 237 262 257 232 237 99 100 95 94 77 76 71 72 263 258 233 238 263 258 233 238 264 259 234 239 264 259 234 239 265 260 235 240 265 260 235 240 266 261 236 241 266 261 236 241 267 262 237 242 267 262 237 242 98 99 94 93 9 77 72 8 123 263 238 118 123 263 238 118 124 264 239 119 124 264 239 119 125 265 240 120 125 265 240 120 126 266 241 121 126 266 241 121 127 267 242 122 127 267 242 122 29 98 93 28 78 20 21 73 268 178 183 243 268 178 183 243 269 179 184 244 269 179 184 244 270 180 185 245 270 180 185 245 271 181 186 246 271 181 186 246 272 182 187 247 272 182 187 247 107 40 41 102 79 78 73 74 273 268 243 248 273 268 243 248 274 269 244 249 274 269 244 249 275 270 245 250 275 270 245 250 276 271 246 251 276 271 246 251 277 272 247 252 277 272 247 252 106 107 102 101 80 79 74 75 278 273 248 253 278 273 248 253 279 274 249 254 279 274 249 254 280 275 250 255 280 275 250 255 281 276 251 256 281 276 251 256 282 277 252 257 282 277 252 257 105 106 101 100 81 80 75 76 283 278 253 258 283 278 253 258 284 279 254 259 284 279 254 259 285 280 255 260 285 280 255 260 286 281 256 261 286 281 256 261 287 282 257 262 287 282 257 262 104 105 100 99 82 81 76 77 288 283 258 263 288 283 258 263 289 284 259 264 289 284 259 264 290 285 260 265 290 285 260 265 291 286 261 266 291 286 261 266 292 287 262 267 292 287 262 267 103 104 99 98 10 82 77 9 128 288 263 123 128 288 263 123 129 289 264 124 129 289 264 124 130 290 265 125 130 290 265 125 131 291 266 126 131 291 266 126 132 292 267 127 132 292 267 127 30 103 98 29 83 19 20 78 293 173 178 268 293 173 178 268 294 174 179 269 294 174 179 269 295 175 180 270 295 175 180 270 296 176 181 271 296 176 181 271 297 177 182 272 297 177 182 272 112 39 40 107 84 83 78 79 298 293 268 273 298 293 268 273 299 294 269 274 299 294 269 274 300 295 270 275 300 295 270 275 301 296 271 276 301 296 271 276 302 297 272 277 302 297 272 277 111 112 107 106 85 84 79 80 303 298 273 278 303 298 273 278 304 299 274 279 304 299 274 279 305 300 275 280 305 300 275 280 306 301 276 281 306 301 276 281 307 302 277 282 307 302 277 282 110 111 106 105 86 85 80 81 308 303 278 283 308 303 278 283 309 304 279 284 309 304 279 284 310 305 280 285 310 305 280 285 311 306 281 286 311 306 281 286 312 307 282 287 312 307 282 287 109 110 105 104 87 86 81 82 313 308 283 288 313 308 283 288 314 309 284 289 314 309 284 289 315 310 285 290 315 310 285 290 316 311 286 291 316 311 286 291 317 312 287 292 317 312 287 292 108 109 104 103 11 87 82 10 133 313 288 128 133 313 288 128 134 314 289 129 134 314 289 129 135 315 290 130 135 315 290 130 136 316 291 131 136 316 291 131 137 317 292 132 137 317 292 132 31 108 103 30 88 18 19 83 318 168 173 293 318 168 173 293 319 169 174 294 319 169 174 294 320 170 175 295 320 170 175 295 321 171 176 296 321 171 176 296 322 172 177 297 322 172 177 297 117 38 39 112 89 88 83 84 323 318 293 298 323 318 293 298 324 319 294 299 324 319 294 299 325 320 295 300 325 320 295 300 326 321 296 301 326 321 296 301 327 322 297 302 327 322 297 302 116 117 112 111 90 89 84 85 328 323 298 303 328 323 298 303 329 324 299 304 329 324 299 304 330 325 300 305 330 325 300 305 331 326 301 306 331 326 301 306 332 327 302 307 332 327 302 307 115 116 111 110 91 90 85 86 333 328 303 308 333 328 303 308 334 329 304 309 334 329 304 309 335 330 305 310 335 330 305 310 336 331 306 311 336 331 306 311 337 332 307 312 337 332 307 312 114 115 110 109 92 91 86 87 338 333 308 313 338 333 308 313 339 334 309 314 339 334 309 314 340 335 310 315 340 335 310 315 341 336 311 316 341 336 311 316 342 337 312 317 342 337 312 317 113 114 109 108 12 92 87 11 138 338 313 133 138 338 313 133 139 339 314 134 139 339 314 134 140 340 315 135 140 340 315 135 141 341 316 136 141 341 316 136 142 342 317 137 142 342 317 137 32 113 108 31 17 2 18 88 163 58 168 318 163 58 168 318 164 59 169 319 164 59 169 319 165 60 170 320 165 60 170 320 166 61 171 321 166 61 171 321 167 62 172 322 167 62 172 322 37 6 38 117 16 17 88 89 158 163 318 323 158 163 318 323 159 164 319 324 159 164 319 324 160 165 320 325 160 165 320 325 161 166 321 326 161 166 321 326 162 167 322 327 162 167 322 327 36 37 117 116 15 16 89 90 153 158 323 328 153 158 323 328 154 159 324 329 154 159 324 329 155 160 325 330 155 160 325 330 156 161 326 331 156 161 326 331 157 162 327 332 157 162 327 332 35 36 116 115 14 15 90 91 148 153 328 333 148 153 328 333 149 154 329 334 149 154 329 334 150 155 330 335 150 155 330 335 151 156 331 336 151 156 331 336 152 157 332 337 152 157 332 337 34 35 115 114 13 14 91 92 143 148 333 338 143 148 333 338 144 149 334 339 144 149 334 339 145 150 335 340 145 150 335 340 146 151 336 341 146 151 336 341 147 152 337 342 147 152 337 342 33 34 114 113 1 13 92 12 53 143 338 138 53 143 338 138 54 144 339 139 54 144 339 139 55 145 340 140 55 145 340 140 56 146 341 141 56 146 341 141 57 147 342 142 57 147 342 142 5 33 113 32 </DataArray>
<DataArray type="Int32" Name="offsets" format="ascii">
8 16 24 32 40 48 56 64 72 80 88 96 104 112 120 128 136 144 152 160 168 176 184 192 200 208 216 224 232 240 248 256 264 272 280 288 296 304 312 320 328 336 344 352 360 368 376 384 392 400 408 416 424 432 440 448 456 464 472 480 488 496 504 512 520 528 536 544 552 560 568 576 584 592 600 608 616 624 632 640 648 656 664 672 680 688 696 704 712 720 728 736 744 752 760 768 776 784 792 800 808 816 824 832 840 848 856 864 872 880 888 896 904 912 920 928 936 944 952 960 968 976 984 992 1000 1008 1016 1024 1032 1040 1048 1056 1064 1072 1080 1088 1096 1104 1112 1120 1128 1136 1144 1152 1160 1168 1176 1184 1192 1200 1208 1216 1224 1232 1240 1248 1256 1264 1272 1280 1288 1296 1304 1312 1320 1328 1336 1344 1352 1360 1368 1376 1384 1392 1400 1408 1416 1424 1432 1440 1448 1456 1464 1472 1480 1488 1496 1504 1512 1520 1528 1536 1544 1552 1560 1568 1576 1584 1592 1600 1608 1616 1624 1632 1640 1648 1656 1664 1672 1680 1688 1696 1704 1712 1720 1728 </DataArray>
<DataArray type="UInt8" Name="types" format="ascii">
12 12 12 12 12 12 12 12 12 12 12 12 12 12 12 12 12 12 12 12 12 12 12 12 12 12 12 12 12 12 12 12 12 12 12 12 12 12 12 12 12 12 12 12 12 12 12 12 12 12 12 12 12 12 12 12 12 12 12 12 12 12 12 12 12 12 12 12 12 12 12 12 12 12 12 12 12 12 12 12 12 12 12 12 12 12 12 12 12 12 12 12 12 12 12 12 12 12 12 12 12 12 12 12 12 12 12 12 12 12 12 12 12 12 12 12 12 12 12 12 12 12 12 12 12 12 12 12 12 12 12 12 12 12 12 12 12 12 12 12 12 12 12 12 12 12 12 12 12 12 12 12 12 12 12 12 12 12 12 12 12 12 12 12 12 12 12 12 12 12 12 12 12 12 12 12 12 12 12 12 12 12 12 12 12 12 12 12 12 12 12 12 12 12 12 12 12 12 12 12 12 12 12 12 12 12 12 12 12 12 12 12 12 12 12 12 </DataArray>
</Cells>
<CellData Scalars="scalars">
<DataArray type="Float32" Name="number_density" format="ascii">
6.48e+15 8.64e+15 4.32e+15 8.64e+15 8.64e+15 8.64e+15 8.64e+15 4.32e+15 0 0 2.16e+15 1.08e+16 4.32e+15 2.16e+15 4.32e+15 0 6.48e+15 2.16e+15 4.32e+15 2.16e+15 2.16e+15 2.16e+15 6.48e+15 2.16e+15 8.64e+15 0 2.16e+15 2.16e+15 6.48e+15 1.512e+16 1.08e+16 2.16e+15 0 2.16e+15 1.08e+16 1.296e+16 1.512e+16 1.296e+16 1.296e+16 8.64e+15 6.48e+15 6.48e+15 8.64e+15 1.08e+16 2.592e+16 1.512e+16 6.48e+15 6.48e+15 1.08e+16 8.64e+15 0 1.08e+16 1.08e+16 6.48e+15 6.48e+15 6.48e+15 1.08e+16 8.64e+15 8.64e+15 4.32e+15 0 0 0 6.48e+15 2.16e+15 0 6.48e+15 2.16e+15 2.16e+15 8.64e+15 2.16e+15 8.64e+15 1.08e+16 8.64e+15 4.32e+15 1.944e+16 8.64e+15 1.296e+16 6.48e+15 1.512e+16 1.728e+16 2.16e+16 1.296e+16 1.08e+16 0 8.64e+15 4.32e+15 4.32e+15 2.376e+16 1.512e+16 4.32e+15 8.64e+15 2.16e+15 1.296e+16 6.48e+15 6.48e+15 8.64e+15 4.32e+15 4.32e+15 8.64e+15 6.48e+15 1.08e+16 4.32e+15 0 2.16e+15 2.16e+15 2.16e+15 2.16e+15 1.08e+16 1.512e+16 1.728e+16 3.24e+16 2.592e+16 1.944e+16 4.32e+15 1.728e+16 6.48e+15 2.16e+16 3.456e+16 1.08e+16 0 1.296e+16 8.64e+15 2.592e+16 1.296e+16 1.512e+16 2.16e+15 1.296e+16 8.64e+15 8.64e+15 1.296e+16 1.296e+16 6.48e+15 1.512e+16 6.48e+15 1.296e+16 1.08e+16 8.64e+15 4.32e+15 4.32e+15 0 2.16e+15 4.32e+15 1.512e+16 4.32e+15 8.64e+15 1.512e+16 4.32e+16 1.296e+16 1.08e+16 6.48e+15 1.296e+16 1.512e+16 8.208e+16 7.344e+16 2.592e+16 1.08e+16 8.64e+15 1.08e+16 3.888e+16 3.672e+16 6.48e+15 1.296e+16 1.296e+16 1.944e+16 8.64e+15 1.728e+16 6.48e+15 1.08e+16 8.64e+15 8.64e+15 8.64e+15 2.16e+15 1.08e+16 2.16e+15 8.64e+15 2.16e+15 8.64e+15 2.16e+15 2.16e+15 1.296e+16 1.08e+16 1.944e+16 2.376e+16 4.32e+15 1.728e+16 4.32e+15 1.296e+16 8.64e+15 2.808e+16 1.296e+16 1.728e+16 6.48e+15 2.16e+16 1.08e+16 1.296e+16 1.944e+16 1.728e+16 1.512e+16 2.16e+15 4.32e+15 6.48e+15 1.296e+16 4.32e+15 2.16e+15 1.08e+16 1.512e+16 8.64e+15 4.32e+15 6.48e+15 4.32e+15 6.48e+15 4.32e+15 8.64e+15 2.16e+15 8.64e+15 </DataArray>
<DataArray type="Float32" Name="potential" format="ascii">
0 0 0 0 0 0 0 0 0 0 0 0 0 0 0 0 0 0 0 0 0 0 0 0 0 0 0 0 0 0 0 0 0 0 0 0 0 0 0 0 0 0 0 0 0 0 0 0 0 0 0 0 0 0 0 0 0 0 0 0 0 0 0 0 0 0 0 0 0 0 0 0 0 0 0 0 0 0 0 0 0 0 0 0 0 0 0 0 0 0 0 0 0 0 0 0 0 0 0 0 0 0 0 0 0 0 0 0 0 0 0 0 0 0 0 0 0 0 0 0 0 0 0 0 0 0 0 0 0 0 0 0 0 0 0 0 0 0 0 0 0 0 0 0 0 0 0 0 0 0 0 0 0 0 0 0 0 0 0 0 0 0 0 0 0 0 0 0 0 0 0 0 0 0 0 0 0 0 0 0 0 0 0 0 0 0 0 0 0 0 0 0 0 0 0 0 0 0 0 0 0 0 0 0 0 0 0 0 0 0 0 0 0 0 0 0 </DataArray>
<DataArray type="Float32" Name="temperature" format="ascii">
455.767 285.651 145.562 236.572 372.413 246.536 176.301 290.569 0 0 1e-15 279.881 187.665 1e-15 91.4953 0 231.151 2.39599e-14 94.9695 1e-15 1.87012e-13 1e-15 121.692 2.39599e-14 197.281 0 9.38395e-14 1.16799e-13 139.698 228.783 121.016 4.72531e-14 0 1e-15 311.974 121.617 112.706 151.569 370.538 414.206 155.88 256.036 342.478 323.053 438.226 768.311 358.752 124.416 631.311 103.644 0 945.451 311.384 224.09 239.373 461.034 180.617 431.345 589.025 146.153 0 0 0 182.91 3.57832e-15 0 92.1892 1.23133e-14 1.87012e-13 264.364 4.72531e-14 166.024 279.134 735.592 378.886 768.847 805.818 274.036 161.411 652.048 405.155 479.858 316.258 148.969 0 351.344 120.511 665.52 586.95 375.892 36.8454 85.2055 1e-15 426.366 255.372 288.505 240.73 109.272 747.328 345.137 482.51 255.153 64.1138 0 1.87012e-13 2.39599e-14 1.87012e-13 1e-15 159.436 589.373 522.831 1557.2 506.229 584.968 361.755 689.095 1104.41 1830 1115.49 335.058 0 306.868 563.174 1406.93 1227.62 736.491 1e-15 373.674 379.084 1803.01 954.494 260.734 264.798 312.304 150.2 745.844 1042.42 416.125 355.542 127.406 0 1e-15 91.8732 280.465 113.872 163.344 1482.41 1305.63 2121.36 251.35 134.859 1062.35 1151.71 2416.95 2085.27 444.363 400.125 801.567 512.977 1935.62 1222 801.694 604.253 332.226 691.046 1458.73 1234.6 161.761 210.197 279.361 802.033 398.201 1e-15 190.918 1.23133e-14 191.219 7.0213e-14 226.329 4.72837e-14 1e-15 299.077 272.568 332.669 1410.31 33.4423 293.033 110.921 320.079 1644.13 915.229 1571.66 549.893 124.818 559.707 437.59 745.508 427.071 287.434 290.466 1e-15 301.701 278.996 660.277 37.8382 1e-15 378.075 350.877 108.003 33.0969 321.924 33.4124 311.857 149.533 239.989 1e-15 198.863 </DataArray>
<DataArray type="Float32" Name="velocity" format="ascii">
221.559 530.006 614.278 445.399 483.567 288.618 759.871 834.391 0 0 533.535 489.269 846.544 916.182 1576.77 0 923.821 467.69 548.11 1107.83 1523.03 1368.34 1064.9 721.646 559.7 0 1014.08 826.146 878.889 681.612 131.547 639.398 0 693.952 478.302 416.007 512.877 583.736 838.381 838.072 1152.52 539.8 1047.05 974.039 1650.73 1616.26 724.978 696.224 1402.48 1787.17 0 1968.69 1397.49 1368.49 924.574 1799.68 1944.09 1721.73 1185.94 868.348 0 0 0 1430.16 1291.77 0 554.264 700.406 1726.6 901.064 549.882 567.229 633.619 731.024 1998.85 1069.6 493.998 344.293 1050.31 2003.53 2583.03 1979.35 1366.46 736.161 0 2335.25 2986.31 3229.91 1757.86 1306.1 1370.38 2006.17 2810.04 2735.68 2140.42 1152.43 948.18 1613.81 1748.62 1945.87 1234.49 624.144 724.46 0 1450.97 1290.77 1244.3 651.12 598.383 985.102 1022.02 1689.01 644.47 377.078 1262.5 1890.41 2602.87 2317.17 1921.27 708.963 0 2542.53 3084.2 3158.81 2086.73 1206.42 1480.44 2155.8 2534.76 2493.32 1854.93 1142.99 1089.21 1428.69 1986.28 1805.21 1481.2 691.409 555.416 1173.91 0 1138.83 916.971 474.678 288.764 536.944 1294.58 1290.12 913.242 215.696 507.657 1306.36 2075.77 2125.2 1648.77 546.213 1082.69 1516.57 1477.63 1667.2 1450.61 884.165 868.605 1344.39 1652.37 1658.9 1152.08 864.605 657.064 1025.5 1202.94 1369.2 1051.06 516.7 384.481 553.296 1233 864.726 721.682 146.038 245.736 424.002 318.459 661.731 282.143 323.96 281.769 521.183 915.765 1022.38 1093.42 360.083 474.168 764.378 1051.09 1200.73 608.692 461.774 464.968 976.568 1035.43 881.757 577.625 671.568 596.558 582.38 777.476 818.775 742.412 361.557 149.313 103.79 632.221 626.627 645.198 252.546 </DataArray>
<DataArray type="Float32" Name="E_field" format="ascii">
0 0 0 0 0 0 0 0 0 0 0 0 0 0 0 0 0 0 0 0 0 0 0 0 0 0 0 0 0 0 0 0 0 0 0 0 0 0 0 0 0 0 0 0 0 0 0 0 0 0 0 0 0 0 0 0 0 0 0 0 0 0 0 0 0 0 0 0 0 0 0 0 0 0 0 0 0 0 0 0 0 0 0 0 0 0 0 0 0 0 0 0 0 0 0 0 0 0 0 0 0 0 0 0 0 0 0 0 0 0 0 0 0 0 0 0 0 0 0 0 0 0 0 0 0 0 0 0 0 0 0 0 0 0 0 0 0 0 0 0 0 0 0 0 0 0 0 0 0 0 0 0 0 0 0 0 0 0 0 0 0 0 0 0 0 0 0 0 0 0 0 0 0 0 0 0 0 0 0 0 0 0 0 0 0 0 0 0 0 0 0 0 0 0 0 0 0 0 0 0 0 0 0 0 0 0 0 0 0 0 0 0 0 0 0 0 </DataArray>
</CellData>
<PointData Scalars="number_density">
<DataArray type="Float32" Name="number_density" format="ascii">
1.08e+16 4.32e+15 1.296e+16 6.48e+15 1.296e+16 8.64e+15 1.728e+16 8.64e+15 8.64e+15 5.4e+15 4.32e+15 3.24e+15 3.24e+15 3.24e+15 8.64e+15 1.08e+16 5.4e+15 8.64e+15 8.64e+15 7.56e+15 1.08e+16 1.296e+16 1.08e+16 7.56e+15 6.48e+15 4.32e+15 6.48e+15 9.72e+15 1.08e+16 5.4e+15 8.64e+15 8.64e+15 5.4e+15 7.56e+15 5.4e+15 1.08e+16 1.728e+16 1.728e+16 1.404e+16 1.512e+16 1.62e+16 9.72e+15 7.56e+15 9.72e+15 6.48e+15 2.16e+15 8.64e+15 1.404e+16 6.48e+15 1.08e+15 1.08e+15 6.48e+15 1.188e+16 5.4e+15 5.4e+15 6.48e+15 5.4e+15 5.4e+15 1.188e+16 1.512e+16 2.16e+16 1.404e+16 1.08e+16 7.56e+15 6.48e+15 6.48e+15 8.64e+15 8.64e+15 9.72e+15 8.1e+15 6.48e+15 4.86e+15 6.48e+15 1.026e+16 6.48e+15 5.4e+15 4.86e+15 4.86e+15 8.1e+15 2.7e+15 1.62e+15 5.4e+15 5.94e+15 6.48e+15 5.4e+15 6.48e+15 8.1e+15 5.94e+15 7.02e+15 7.02e+15 1.134e+16 1.026e+16 4.86e+15 9.18e+15 5.4e+15 3.78e+15 6.48e+15 8.1e+15 5.4e+15 5.4e+15 8.1e+15 9.72e+15 9.18e+15 9.18e+15 9.72e+15 1.242e+16 1.296e+16 1.35e+16 9.18e+15 9.72e+15 1.026e+16 1.458e+16 1.674e+16 7.02e+15 7.02e+15 8.64e+15 1.674e+16 1.782e+16 5.4e+15 1.62e+15 3.24e+15 5.94e+15 8.64e+15 3.24e+15 1.62e+15 3.78e+15 3.78e+15 3.78e+15 3.24e+15 1.62e+15 1.62e+15 2.7e+15 5.94e+15 4.86e+15 3.78e+15 3.24e+15 4.32e+15 5.94e+15 5.4e+15 5.4e+15 5.94e+15 5.4e+15 3.78e+15 5.94e+15 9.18e+15 9.18e+15 5.94e+15 5.4e+15 7.56e+15 8.1e+15 8.64e+15 8.1e+15 7.02e+15 1.134e+16 9.72e+15 8.64e+15 1.296e+16 1.35e+16 1.134e+16 1.35e+16 1.512e+16 1.836e+16 1.674e+16 1.026e+16 1.296e+16 1.998e+16 1.728e+16 1.296e+16 9.18e+15 1.35e+16 2.538e+16 2.106e+16 1.134e+16 9.72e+15 1.404e+16 2.7e+16 2.862e+16 1.728e+16 1.134e+16 1.134e+16 1.836e+16 2.16e+16 1.674e+16 1.188e+16 9.72e+15 1.134e+16 1.08e+16 8.64e+15 1.08e+16 9.72e+15 8.64e+15 8.1e+15 7.56e+15 7.02e+15 4.32e+15 3.24e+15 4.86e+15 7.56e+15 4.86e+15 2.7e+15 1.08e+15 2.16e+15 5.4e+15 3.24e+15 2.7e+15 2.16e+15 3.78e+15 4.32e+15 3.78e+15 1.62e+15 2.16e+15 4.32e+15 7.56e+15 5.4e+15 1.08e+15 1.62e+15 5.4e+15 1.134e+16 9.45e+15 9.99e+15 9.45e+15 7.02e+15 7.02e+15 7.29e+15 7.02e+15 7.02e+15 6.48e+15 6.48e+15 5.67e+15 4.59e+15 4.86e+15 6.75e+15 5.94e+15 3.51e+15 2.97e+15 4.32e+15 5.4e+15 5.67e+15 3.78e+15 1.08e+15 2.97e+15 5.13e+15 7.29e+15 1.107e+16 1.35e+16 1.566e+16 1.242e+16 8.91e+15 8.64e+15 1.134e+16 1.242e+16 1.323e+16 1.161e+16 6.75e+15 6.21e+15 6.75e+15 1.08e+16 1.026e+16 4.86e+15 4.59e+15 6.75e+15 7.56e+15 5.67e+15 3.24e+15 1.89e+15 4.32e+15 4.86e+15 4.32e+15 1.107e+16 1.269e+16 1.755e+16 2.214e+16 1.701e+16 8.1e+15 1.134e+16 1.377e+16 1.971e+16 1.701e+16 6.21e+15 8.37e+15 9.45e+15 1.35e+16 1.323e+16 7.83e+15 7.83e+15 8.1e+15 9.99e+15 9.45e+15 5.94e+15 4.59e+15 4.86e+15 6.21e+15 7.56e+15 9.99e+15 1.35e+16 2.916e+16 4.077e+16 2.673e+16 9.18e+15 1.161e+16 2.619e+16 4.077e+16 2.7e+16 9.18e+15 1.188e+16 1.62e+16 2.025e+16 1.512e+16 1.026e+16 1.161e+16 1.026e+16 1.026e+16 1.026e+16 7.56e+15 6.75e+15 6.21e+15 6.48e+15 7.02e+15 9.18e+15 1.296e+16 2.943e+16 3.51e+16 2.187e+16 1.053e+16 1.269e+16 2.592e+16 3.807e+16 2.619e+16 1.134e+16 1.134e+16 1.404e+16 1.917e+16 1.512e+16 9.45e+15 1.026e+16 9.99e+15 8.64e+15 8.1e+15 6.75e+15 8.1e+15 8.1e+15 5.67e+15 4.86e+15 </DataArray>
<DataArray type="Float32" Name="potential" format="ascii">
0 0 0 0 0 0 0 0 0 0 0 0 0 0 0 0 0 0 0 0 0 0 0 0 0 0 0 0 0 0 0 0 0 0 0 0 0 0 0 0 0 0 0 0 0 0 0 0 0 0 0 0 0 0 0 0 0 0 0 0 0 0 0 0 0 0 0 0 0 0 0 0 0 0 0 0 0 0 0 0 0 0 0 0 0 0 0 0 0 0 0 0 0 0 0 0 0 0 0 0 0 0 0 0 0 0 0 0 0 0 0 0 0 0 0 0 0 0 0 0 0 0 0 0 0 0 0 0 0 0 0 0 0 0 0 0 0 0 0 0 0 0 0 0 0 0 0 0 0 0 0 0 0 0 0 0 0 0 0 0 0 0 0 0 0 0 0 0 0 0 0 0 0 0 0 0 0 0 0 0 0 0 0 0 0 0 0 0 0 0 0 0 0 0 0 0 0 0 0 0 0 0 0 0 0 0 0 0 0 0 0 0 0 0 0 0 0 0 0 0 0 0 0 0 0 0 0 0 0 0 0 0 0 0 0 0 0 0 0 0 0 0 0 0 0 0 0 0 0 0 0 0 0 0 0 0 0 0 0 0 0 0 0 0 0 0 0 0 0 0 0 0 0 0 0 0 0 0 0 0 0 0 0 0 0 0 0 0 0 0 0 0 0 0 0 0 0 0 0 0 0 0 0 0 0 0 0 0 0 0 0 0 0 0 0 0 0 0 0 0 0 0 0 0 0 0 0 0 0 0 0 0 0 0 0 0 0 0 0 0 0 0 0 </DataArray>
<DataArray type="Float32" Name="temperature" format="ascii">