<VTKFile type="UnstructuredGrid" version="0.1" byte_order="LittleEndian">
<UnstructuredGrid>
<Piece NumberOfPoints="343" NumberOfCells="216">
<Points>
<DataArray type="Float32" NumberOfComponents="3" format="ascii">
-0.05 -0.05 -0.05 0.05 -0.05 -0.05 0.05 0.05 -0.05 -0.05 0.05 -0.05 -0.05 -0.05 0.05 0.05 -0.05 0.05 0.05 0.05 0.05 -0.05 0.05 0.05 -0.0333333 -0.05 -0.05 -0.0166667 -0.05 -0.05 0 -0.05 -0.05 0.0166667 -0.05 -0.05 0.0333333 -0.05 -0.05 0.05 -0.0333333 -0.05 0.05 -0.0166667 -0.05 0.05 0 -0.05 0.05 0.0166667 -0.05 0.05 0.0333333 -0.05 0.0333333 0.05 -0.05 0.0166667 0.05 -0.05 0 0.05 -0.05 -0.0166667 0.05 -0.05 -0.0333333 0.05 -0.05 -0.05 0.0333333 -0.05 -0.05 0.0166667 -0.05 -0.05 0 -0.05 -0.05 -0.0166667 -0.05 -0.05 -0.0333333 -0.05 -0.0333333 -0.05 0.05 -0.0166667 -0.05 0.05 0 -0.05 0.05 0.0166667 -0.05 0.05 0.0333333 -0.05 0.05 0.05 -0.0333333 0.05 0.05 -0.0166667 0.05 0.05 0 0.05 0.05 0.0166667 0.05 0.05 0.0333333 0.05 0.0333333 0.05 0.05 0.0166667 0.05 0.05 0 0.05 0.05 -0.0166667 0.05 0.05 -0.0333333 0.05 0.05 -0.05 0.0333333 0.05 -0.05 0.0166667 0.05 -0.05 0 0.05 -0.05 -0.0166667 0.05 -0.05 -0.0333333 0.05 -0.05 -0.05 -0.0333333 -0.05 -0.05 -0.0166667 -0.05 -0.05 0 -0.05 -0.05 0.0166667 -0.05 -0.05 0.0333333 0.05 -0.05 -0.0333333 0.05 -0.05 -0.0166667 0.05 -0.05 0 0.05 -0.05 0.0166667 0.05 -0.05 0.0333333 0.05 0.05 -0.0333333 0.05 0.05 -0.0166667 0.05 0.05 0 0.05 0.05 0.0166667 0.05 0.05 0.0333333 -0.05 0.05 -0.0333333 -0.05 0.05 -0.0166667 -0.05 0.05 0 -0.05 0.05 0.0166667 -0.05 0.05 0.0333333 -0.0333333 0.0333333 -0.05 -0.0333333 0.0166667 -0.05 -0.0333333 -3.55271e-18 -0.05 -0.0333333 -0.0166667 -0.05 -0.0333333 -0.0333333 -0.05 -0.0166667 0.0333333 -0.05 -0.0166667 0.0166667 -0.05 -0.0166667 -7.10543e-18 -0.05 -0.0166667 -0.0166667 -0.05 -0.0166667 -0.0333333 -0.05 1.77636e-18 0.0333333 -0.05 5.32907e-18 0.0166667 -0.05 3.55271e-18 -1.77636e-18 -0.05 7.10543e-18 -0.0166667 -0.05 3.55271e-18 -0.0333333 -0.05 0.0166667 0.0333333 -0.05 0.0166667 0.0166667 -0.05 0.0166667 -7.10543e-18 -0.05 0.0166667 -0.0166667 -0.05 0.0166667 -0.0333333 -0.05 0.0333333 0.0333333 -0.05 0.0333333 0.0166667 -0.05 0.0333333 -1.77636e-18 -0.05 0.0333333 -0.0166667 -0.05 0.0333333 -0.0333333 -0.05 -0.0333333 -0.0333333 0.05 -0.0333333 -0.0166667 0.05 -0.0333333 0 0.05 -0.0333333 0.0166667 0.05 -0.0333333 0.0333333 0.05 -0.0166667 -0.0333333 0.05 -0.0166667 -0.0166667 0.05 -0.0166667 0 0.05 -0.0166667 0.0166667 0.05 -0.0166667 0.0333333 0.05 0 -0.0333333 0.05 0 -0.0166667 0.05 0 0 0.05 0 0.0166667 0.05 0 0.0333333 0.05 0.0166667 -0.0333333 0.05 0.0166667 -0.0166667 0.05 0.0166667 0 0.05 0.0166667 0.0166667 0.05 0.0166667 0.0333333 0.05 0.0333333 -0.0333333 0.05 0.0333333 -0.0166667 0.05 0.0333333 1.77636e-18 0.05 0.0333333 0.0166667 0.05 0.0333333 0.0333333 0.05 -0.0333333 -0.05 -0.0333333 -0.0333333 -0.05 -0.0166667 -0.0333333 -0.05 0 -0.0333333 -0.05 0.0166667 -0.0333333 -0.05 0.0333333 -0.0166667 -0.05 -0.0333333 -0.0166667 -0.05 -0.0166667 -0.0166667 -0.05 0 -0.0166667 -0.05 0.0166667 -0.0166667 -0.05 0.0333333 0 -0.05 -0.0333333 0 -0.05 -0.0166667 0 -0.05 0 0 -0.05 0.0166667 0 -0.05 0.0333333 0.0166667 -0.05 -0.0333333 0.0166667 -0.05 -0.0166667 0.0166667 -0.05 0 0.0166667 -0.05 0.0166667 0.0166667 -0.05 0.0333333 0.0333333 -0.05 -0.0333333 0.0333333 -0.05 -0.0166667 0.0333333 -0.05 1.77636e-18 0.0333333 -0.05 0.0166667 0.0333333 -0.05 0.0333333 0.05 -0.0333333 -0.0333333 0.05 -0.0333333 -0.0166667 0.05 -0.0333333 0 0.05 -0.0333333 0.0166667 0.05 -0.0333333 0.0333333 0.05 -0.0166667 -0.0333333 0.05 -0.0166667 -0.0166667 0.05 -0.0166667 0 0.05 -0.0166667 0.0166667 0.05 -0.0166667 0.0333333 0.05 0 -0.0333333 0.05 0 -0.0166667 0.05 0 0 0.05 0 0.0166667 0.05 0 0.0333333 0.05 0.0166667 -0.0333333 0.05 0.0166667 -0.0166667 0.05 0.0166667 0 0.05 0.0166667 0.0166667 0.05 0.0166667 0.0333333 0.05 0.0333333 -0.0333333 0.05 0.0333333 -0.0166667 0.05 0.0333333 1.77636e-18 0.05 0.0333333 0.0166667 0.05 0.0333333 0.0333333 0.0333333 0.05 -0.0333333 0.0333333 0.05 -0.0166667 0.0333333 0.05 0 0.0333333 0.05 0.0166667 0.0333333 0.05 0.0333333 0.0166667 0.05 -0.0333333 0.0166667 0.05 -0.0166667 0.0166667 0.05 0 0.0166667 0.05 0.0166667 0.0166667 0.05 0.0333333 0 0.05 -0.0333333 0 0.05 -0.0166667 0 0.05 0 0 0.05 0.0166667 0 0.05 0.0333333 -0.0166667 0.05 -0.0333333 -0.0166667 0.05 -0.0166667 -0.0166667 0.05 0 -0.0166667 0.05 0.0166667 -0.0166667 0.05 0.0333333 -0.0333333 0.05 -0.0333333 -0.0333333 0.05 -0.0166667 -0.0333333 0.05 1.77636e-18 -0.0333333 0.05 0.0166667 -0.0333333 0.05 0.0333333 -0.05 0.0333333 -0.0333333 -0.05 0.0333333 -0.0166667 -0.05 0.0333333 0 -0.05 0.0333333 0.0166667 -0.05 0.0333333 0.0333333 -0.05 0.0166667 -0.0333333 -0.05 0.0166667 -0.0166667 -0.05 0.0166667 0 -0.05 0.0166667 0.0166667 -0.05 0.0166667 0.0333333 -0.05 0 -0.0333333 -0.05 0 -0.0166667 -0.05 0 0 -0.05 0 0.0166667 -0.05 0 0.0333333 -0.05 -0.0166667 -0.0333333 -0.05 -0.0166667 -0.0166667 -0.05 -0.0166667 0 -0.05 -0.0166667 0.0166667 -0.05 -0.0166667 0.0333333 -0.05 -0.0333333 -0.0333333 -0.05 -0.0333333 -0.0166667 -0.05 -0.0333333 1.77636e-18 -0.05 -0.0333333 0.0166667 -0.05 -0.0333333 0.0333333 -0.0333333 0.0333333 -0.0333333 -0.0333333 0.0333333 -0.0166667 -0.0333333 0.0333333 4.44089e-19 -0.0333333 0.0333333 0.0166667 -0.0333333 0.0333333 0.0333333 -0.0333333 0.0166667 -0.0333333 -0.0333333 0.0166667 -0.0166667 -0.0333333 0.0166667 -4.44089e-18 -0.0333333 0.0166667 0.0166667 -0.0333333 0.0166667 0.0333333 -0.0333333 -6.66134e-18 -0.0333333 -0.0333333 -9.76996e-18 -0.0166667 -0.0333333 -1.77636e-18 -1.77636e-18 -0.0333333 -1.77636e-18 0.0166667 -0.0333333 3.55271e-18 0.0333333 -0.0333333 -0.0166667 -0.0333333 -0.0333333 -0.0166667 -0.0166667 -0.0333333 -0.0166667 1.77636e-18 -0.0333333 -0.0166667 0.0166667 -0.0333333 -0.0166667 0.0333333 -0.0333333 -0.0333333 -0.0333333 -0.0333333 -0.0333333 -0.0166667 -0.0333333 -0.0333333 0 -0.0333333 -0.0333333 0.0166667 -0.0333333 -0.0333333 0.0333333 -0.0166667 0.0333333 -0.0333333 -0.0166667 0.0333333 -0.0166667 -0.0166667 0.0333333 2.66454e-18 -0.0166667 0.0333333 0.0166667 -0.0166667 0.0333333 0.0333333 -0.0166667 0.0166667 -0.0333333 -0.0166667 0.0166667 -0.0166667 -0.0166667 0.0166667 -1.77636e-18 -0.0166667 0.0166667 0.0166667 -0.0166667 0.0166667 0.0333333 -0.0166667 -1.06581e-17 -0.0333333 -0.0166667 -1.15463e-17 -0.0166667 -0.0166667 -3.55271e-18 0 -0.0166667 -8.88178e-18 0.0166667 -0.0166667 -1.77636e-18 0.0333333 -0.0166667 -0.0166667 -0.0333333 -0.0166667 -0.0166667 -0.0166667 -0.0166667 -0.0166667 3.55271e-18 -0.0166667 -0.0166667 0.0166667 -0.0166667 -0.0166667 0.0333333 -0.0166667 -0.0333333 -0.0333333 -0.0166667 -0.0333333 -0.0166667 -0.0166667 -0.0333333 0 -0.0166667 -0.0333333 0.0166667 -0.0166667 -0.0333333 0.0333333 3.44169e-18 0.0333333 -0.0333333 1.02141e-17 0.0333333 -0.0166667 2.66454e-18 0.0333333 -8.88178e-19 6.21725e-18 0.0333333 0.0166667 1.33227e-18 0.0333333 0.0333333 7.99361e-18 0.0166667 -0.0333333 8.43769e-18 0.0166667 -0.0166667 8.88178e-19 0.0166667 8.88178e-19 7.99361e-18 0.0166667 0.0166667 3.55271e-18 0.0166667 0.0333333 3.55271e-18 -1.77636e-18 -0.0333333 9.76996e-18 -9.76996e-18 -0.0166667 0 -8.88178e-19 -8.88178e-19 8.88178e-18 -8.88178e-18 0.0166667 1.77636e-18 -1.77636e-18 0.0333333 1.02141e-17 -0.0166667 -0.0333333 1.24345e-17 -0.0166667 -0.0166667 3.55271e-18 -0.0166667 -1.77636e-18 8.88178e-18 -0.0166667 0.0166667 3.55271e-18 -0.0166667 0.0333333 5.77316e-18 -0.0333333 -0.0333333 4.44089e-18 -0.0333333 -0.0166667 1.77636e-18 -0.0333333 1.77636e-18 5.32907e-18 -0.0333333 0.0166667 0 -0.0333333 0.0333333 0.0166667 0.0333333 -0.0333333 0.0166667 0.0333333 -0.0166667 0.0166667 0.0333333 -2.66454e-18 0.0166667 0.0333333 0.0166667 0.0166667 0.0333333 0.0333333 0.0166667 0.0166667 -0.0333333 0.0166667 0.0166667 -0.0166667 0.0166667 0.0166667 3.10862e-18 0.0166667 0.0166667 0.0166667 0.0166667 0.0166667 0.0333333 0.0166667 -1.24345e-17 -0.0333333 0.0166667 -1.37668e-17 -0.0166667 0.0166667 -3.55271e-18 -1.77636e-18 0.0166667 -6.21725e-18 0.0166667 0.0166667 -8.88178e-19 0.0333333 0.0166667 -0.0166667 -0.0333333 0.0166667 -0.0166667 -0.0166667 0.0166667 -0.0166667 2.66454e-18 0.0166667 -0.0166667 0.0166667 0.0166667 -0.0166667 0.0333333 0.0166667 -0.0333333 -0.0333333 0.0166667 -0.0333333 -0.0166667 0.0166667 -0.0333333 0 0.0166667 -0.0333333 0.0166667 0.0166667 -0.0333333 0.0333333 0.0333333 0.0333333 -0.0333333 0.0333333 0.0333333 -0.0166667 0.0333333 0.0333333 3.33067e-19 0.0333333 0.0333333 0.0166667 0.0333333 0.0333333 0.0333333 0.0333333 0.0166667 -0.0333333 0.0333333 0.0166667 -0.0166667 0.0333333 0.0166667 1.11022e-18 0.0333333 0.0166667 0.0166667 0.0333333 0.0166667 0.0333333 0.0333333 -4.44089e-18 -0.0333333 0.0333333 -4.21885e-18 -0.0166667 0.0333333 8.88178e-19 8.88178e-19 0.0333333 -1.33227e-18 0.0166667 0.0333333 3.55271e-18 0.0333333 0.0333333 -0.0166667 -0.0333333 0.0333333 -0.0166667 -0.0166667 0.0333333 -0.0166667 2.22045e-18 0.0333333 -0.0166667 0.0166667 0.0333333 -0.0166667 0.0333333 0.0333333 -0.0333333 -0.0333333 0.0333333 -0.0333333 -0.0166667 0.0333333 -0.0333333 2.22045e-18 0.0333333 -0.0333333 0.0166667 0.0333333 -0.0333333 0.0333333 </DataArray>
</Points>
<Cells>
<DataArray type="Int32" Name="connectivity" format="ascii">
68 22 3 23 218 188 63 193 218 188 63 193 219 189 64 194 219 189 64 194 220 190 65 195 220 190 65 195 221 191 66 196 221 191 66 196 222 192 67 197 222 192 67 197 97 42 7 43 69 68 23 24 223 218 193 198 223 218 193 198 224 219 194 199 224 219 194 199 225 220 195 200 225 220 195 200 226 221 196 201 226 221 196 201 227 222 197 202 227 222 197 202 96 97 43 44 70 69 24 25 228 223 198 203 228 223 198 203 229 224 199 204 229 224 199 204 230 225 200 205 230 225 200 205 231 226 201 206 231 226 201 206 232 227 202 207 232 227 202 207 95 96 44 45 71 70 25 26 233 228 203 208 233 228 203 208 234 229 204 209 234 229 204 209 235 230 205 210 235 230 205 210 236 231 206 211 236 231 206 211 237 232 207 212 237 232 207 212 94 95 45 46 72 71 26 27 238 233 208 213 238 233 208 213 239 234 209 214 239 234 209 214 240 235 210 215 240 235 210 215 241 236 211 216 241 236 211 216 242 237 212 217 242 237 212 217 93 94 46 47 8 72 27 0 118 238 213 48 118 238 213 48 119 239 214 49 119 239 214 49 120 240 215 50 120 240 215 50 121 241 216 51 121 241 216 51 122 242 217 52 122 242 217 52 28 93 47 4 73 21 22 68 243 183 188 218 243 183 188 218 244 184 189 219 244 184 189 219 245 185 190 220 245 185 190 220 246 186 191 221 246 186 191 221 247 187 192 222 247 187 192 222 102 41 42 97 74 73 68 69 248 243 218 223 248 243 218 223 249 244 219 224 249 244 219 224 250 245 220 225 250 245 220 225 251 246 221 226 251 246 221 226 252 247 222 227 252 247 222 227 101 102 97 96 75 74 69 70 253 248 223 228 253 248 223 228 254 249 224 229 254 249 224 229 255 250 225 230 255 250 225 230 256 251 226 231 256 251 226 231 257 252 227 232 257 252 227 232 100 101 96 95 76 75 70 71 258 253 228 233 258 253 228 233 259 254 229 234 259 254 229 234 260 255 230 235 260 255 230 235 261 256 231 236 261 256 231 236 262 257 232 237 262 257 232 237 99 100 95 94 77 76 71 72 263 258 233 238 263 258 233 238 264 259 234 239 264 259 234 239 265 260 235 240 265 260 235 240 266 261 236 241 266 261 236 241 267 262 237 242 267 262 237 242 98 99 94 93 9 77 72 8 123 263 238 118 123 263 238 118 124 264 239 119 124 264 239 119 125 265 240 120 125 265 240 120 126 266 241 121 126 266 241 121 127 267 242 122 127 267 242 122 29 98 93 28 78 20 21 73 268 178 183 243 268 178 183 243 269 179 184 244 269 179 184 244 270 180 185 245 270 180 185 245 271 181 186 246 271 181 186 246 272 182 187 247 272 182 187 247 107 40 41 102 79 78 73 74 273 268 243 248 273 268 243 248 274 269 244 249 274 269 244 249 275 270 245 250 275 270 245 250 276 271 246 251 276 271 246 251 277 272 247 252 277 272 247 252 106 107 102 101 80 79 74 75 278 273 248 253 278 273 248 253 279 274 249 254 279 274 249 254 280 275 250 255 280 275 250 255 281 276 251 256 281 276 251 256 282 277 252 257 282 277 252 257 105 106 101 100 81 80 75 76 283 278 253 258 283 278 253 258 284 279 254 259 284 279 254 259 285 280 255 260 285 280 255 260 286 281 256 261 286 281 256 261 287 282 257 262 287 282 257 262 104 105 100 99 82 81 76 77 288 283 258 263 288 283 258 263 289 284 259 264 289 284 259 264 290 285 260 265 290 285 260 265 291 286 261 266 291 286 261 266 292 287 262 267 292 287 262 267 103 104 99 98 10 82 77 9 128 288 263 123 128 288 263 123 129 289 264 124 129 289 264 124 130 290 265 125 130 290 265 125 131 291 266 126 131 291 266 126 132 292 267 127 132 292 267 127 30 103 98 29 83 19 20 78 293 173 178 268 293 173 178 268 294 174 179 269 294 174 179 269 295 175 180 270 295 175 180 270 296 176 181 271 296 176 181 271 297 177 182 272 297 177 182 272 112 39 40 107 84 83 78 79 298 293 268 273 298 293 268 273 299 294 269 274 299 294 269 274 300 295 270 275 300 295 270 275 301 296 271 276 301 296 271 276 302 297 272 277 302 297 272 277 111 112 107 106 85 84 79 80 303 298 273 278 303 298 273 278 304 299 274 279 304 299 274 279 305 300 275 280 305 300 275 280 306 301 276 281 306 301 276 281 307 302 277 282 307 302 277 282 110 111 106 105 86 85 80 81 308 303 278 283 308 303 278 283 309 304 279 284 309 304 279 284 310 305 280 285 310 305 280 285 311 306 281 286 311 306 281 286 312 307 282 287 312 307 282 287 109 110 105 104 87 86 81 82 313 308 283 288 313 308 283 288 314 309 284 289 314 309 284 289 315 310 285 290 315 310 285 290 316 311 286 291 316 311 286 291 317 312 287 292 317 312 287 292 108 109 104 103 11 87 82 10 133 313 288 128 133 313 288 128 134 314 289 129 134 314 289 129 135 315 290 130 135 315 290 130 136 316 291 131 136 316 291 131 137 317 292 132 137 317 292 132 31 108 103 30 88 18 19 83 318 168 173 293 318 168 173 293 319 169 174 294 319 169 174 294 320 170 175 295 320 170 175 295 321 171 176 296 321 171 176 296 322 172 177 297 322 172 177 297 117 38 39 112 89 88 83 84 323 318 293 298 323 318 293 298 324 319 294 299 324 319 294 299 325 320 295 300 325 320 295 300 326 321 296 301 326 321 296 301 327 322 297 302 327 322 297 302 116 117 112 111 90 89 84 85 328 323 298 303 328 323 298 303 329 324 299 304 329 324 299 304 330 325 300 305 330 325 300 305 331 326 301 306 331 326 301 306 332 327 302 307 332 327 302 307 115 116 111 110 91 90 85 86 333 328 303 308 333 328 303 308 334 329 304 309 334 329 304 309 335 330 305 310 335 330 305 310 336 331 306 311 336 331 306 311 337 332 307 312 337 332 307 312 114 115 110 109 92 91 86 87 338 333 308 313 338 333 308 313 339 334 309 314 339 334 309 314 340 335 310 315 340 335 310 315 341 336 311 316 341 336 311 316 342 337 312 317 342 337 312 317 113 114 109 108 12 92 87 11 138 338 313 133 138 338 313 133 139 339 314 134 139 339 314 134 140 340 315 135 140 340 315 135 141 341 316 136 141 341 316 136 142 342 317 137 142 342 317 137 32 113 108 31 17 2 18 88 163 58 168 318 163 58 168 318 164 59 169 319 164 59 169 319 165 60 170 320 165 60 170 320 166 61 171 321 166 61 171 321 167 62 172 322 167 62 172 322 37 6 38 117 16 17 88 89 158 163 318 323 158 163 318 323 159 164 319 324 159 164 319 324 160 165 320 325 160 165 320 325 161 166 321 326 161 166 321 326 162 167 322 327 162 167 322 327 36 37 117 116 15 16 89 90 153 158 323 328 153 158 323 328 154 159 324 329 154 159 324 329 155 160 325 330 155 160 325 330 156 161 326 331 156 161 326 331 157 162 327 332 157 162 327 332 35 36 116 115 14 15 90 91 148 153 328 333 148 153 328 333 149 154 329 334 149 154 329 334 150 155 330 335 150 155 330 335 151 156 331 336 151 156 331 336 152 157 332 337 152 157 332 337 34 35 115 114 13 14 91 92 143 148 333 338 143 148 333 338 144 149 334 339 144 149 334 339 145 150 335 340 145 150 335 340 146 151 336 341 146 151 336 341 147 152 337 342 147 152 337 342 33 34 114 113 1 13 92 12 53 143 338 138 53 143 338 138 54 144 339 139 54 144 339 139 55 145 340 140 55 145 340 140 56 146 341 141 56 146 341 141 57 147 342 142 57 147 342 142 5 33 113 32 </DataArray>
<DataArray type="Int32" Name="offsets" format="ascii">
8 16 24 32 40 48 56 64 72 80 88 96 104 112 120 128 136 144 152 160 168 176 184 192 200 208 216 224 232 240 248 256 264 272 280 288 296 304 312 320 328 336 344 352 360 368 376 384 392 400 408 416 424 432 440 448 456 464 472 480 488 496 504 512 520 528 536 544 552 560 568 576 584 592 600 608 616 624 632 640 648 656 664 672 680 688 696 704 712 720 728 736 744 752 760 768 776 784 792 800 808 816 824 832 840 848 856 864 872 880 888 896 904 912 920 928 936 944 952 960 968 976 984 992 1000 1008 1016 1024 1032 1040 1048 1056 1064 1072 1080 1088 1096 1104 1112 1120 1128 1136 1144 1152 1160 1168 1176 1184 1192 1200 1208 1216 1224 1232 1240 1248 1256 1264 1272 1280 1288 1296 1304 1312 1320 1328 1336 1344 1352 1360 1368 1376 1384 1392 1400 1408 1416 1424 1432 1440 1448 1456 1464 1472 1480 1488 1496 1504 1512 1520 1528 1536 1544 1552 1560 1568 1576 1584 1592 1600 1608 1616 1624 1632 1640 1648 1656 1664 1672 1680 1688 1696 1704 1712 1720 1728 </DataArray>
<DataArray type="UInt8" Name="types" format="ascii">
12 12 12 12 12 12 12 12 12 12 12 12 12 12 12 12 12 12 12 12 12 12 12 12 12 12 12 12 12 12 12 12 12 12 12 12 12 12 12 12 12 12 12 12 12 12 12 12 12 12 12 12 12 12 12 12 12 12 12 12 12 12 12 12 12 12 12 12 12 12 12 12 12 12 12 12 12 12 12 12 12 12 12 12 12 12 12 12 12 12 12 12 12 12 12 12 12 12 12 12 12 12 12 12 12 12 12 12 12 12 12 12 12 12 12 12 12 12 12 12 12 12 12 12 12 12 12 12 12 12 12 12 12 12 12 12 12 12 12 12 12 12 12 12 12 12 12 12 12 12 12 12 12 12 12 12 12 12 12 12 12 12 12 12 12 12 12 12 12 12 12 12 12 12 12 12 12 12 12 12 12 12 12 12 12 12 12 12 12 12 12 12 12 12 12 12 12 12 12 12 12 12 12 12 12 12 12 12 12 12 12 12 12 12 12 12 </DataArray>
</Cells>
<CellData Scalars="scalars">
<DataArray type="Float32" Name="number_density" format="ascii">
1.08e+16 1.08e+16 8.64e+15 1.08e+16 6.48e+15 1.08e+16 1.08e+16 1.728e+16 6.48e+15 4.32e+15 8.64e+15 8.64e+15 1.296e+16 8.64e+15 1.512e+16 1.512e+16 8.64e+15 8.64e+15 1.08e+16 6.48e+15 4.32e+15 2.16e+15 1.296e+16 6.48e+15 4.32e+15 0 6.48e+15 1.08e+16 4.32e+15 8.64e+15 1.512e+16 4.32e+15 4.32e+15 1.512e+16 1.296e+16 2.376e+16 8.64e+15 1.296e+16 4.32e+15 8.64e+15 4.32e+15 6.48e+15 8.64e+15 1.296e+16 1.512e+16 1.08e+16 1.08e+16 4.32e+15 8.64e+15 2.16e+16 1.08e+16 1.512e+16 1.512e+16 1.296e+16 1.944e+16 2.16e+15 1.08e+16 2.16e+15 1.512e+16 1.08e+16 8.64e+15 2.16e+15 1.08e+16 8.64e+15 8.64e+15 2.16e+15 1.08e+16 6.48e+15 0 1.08e+16 6.48e+15 4.32e+15 1.512e+16 1.08e+16 6.48e+15 1.296e+16 1.08e+16 1.296e+16 1.08e+16 8.64e+15 8.64e+15 1.728e+16 1.296e+16 1.08e+16 1.296e+16 8.64e+15 1.08e+16 1.296e+16 6.48e+15 1.296e+16 1.512e+16 4.32e+15 1.512e+16 6.48e+15 8.64e+15 1.08e+16 8.64e+15 8.64e+15 1.296e+16 8.64e+15 0 4.32e+15 1.296e+16 8.64e+15 2.16e+15 1.512e+16 2.16e+15 1.728e+16 8.64e+15 1.296e+16 1.08e+16 1.296e+16 1.512e+16 1.296e+16 1.296e+16 6.48e+15 1.944e+16 2.16e+16 2.16e+16 1.512e+16 4.32e+15 8.64e+15 1.512e+16 2.808e+16 6.48e+15 4.32e+15 4.32e+15 2.16e+15 8.64e+15 8.64e+15 1.296e+16 1.296e+16 1.728e+16 6.48e+15 6.48e+15 6.48e+15 1.512e+16 4.32e+15 6.48e+15 2.16e+15 6.48e+15 8.64e+15 2.16e+15 1.728e+16 1.08e+16 1.08e+16 1.296e+16 1.512e+16 1.08e+16 1.08e+16 1.08e+16 2.16e+15 8.64e+15 1.296e+16 1.08e+16 1.728e+16 1.08e+16 4.32e+15 1.512e+16 2.16e+16 1.296e+16 4.32e+15 1.296e+16 1.296e+16 1.296e+16 1.944e+16 1.08e+16 6.48e+15 1.728e+16 1.296e+16 8.64e+15 6.48e+15 2.16e+15 1.512e+16 6.48e+15 8.64e+15 1.08e+16 1.296e+16 4.32e+15 6.48e+15 1.512e+16 6.48e+15 1.944e+16 1.08e+16 4.32e+15 1.512e+16 4.32e+15 1.08e+16 6.48e+15 6.48e+15 8.64e+15 8.64e+15 1.08e+16 8.64e+15 1.296e+16 1.08e+16 2.376e+16 8.64e+15 1.08e+16 1.08e+16 1.08e+16 1.08e+16 4.32e+15 4.32e+15 1.728e+16 4.32e+15 1.08e+16 8.64e+15 1.296e+16 2.16e+15 4.32e+15 4.32e+15 1.08e+16 8.64e+15 8.64e+15 1.08e+16 </DataArray>
<DataArray type="Float32" Name="potential" format="ascii">
0 0 0 0 0 0 0 0 0 0 0 0 0 0 0 0 0 0 0 0 0 0 0 0 0 0 0 0 0 0 0 0 0 0 0 0 0 0 0 0 0 0 0 0 0 0 0 0 0 0 0 0 0 0 0 0 0 0 0 0 0 0 0 0 0 0 0 0 0 0 0 0 0 0 0 0 0 0 0 0 0 0 0 0 0 0 0 0 0 0 0 0 0 0 0 0 0 0 0 0 0 0 0 0 0 0 0 0 0 0 0 0 0 0 0 0 0 0 0 0 0 0 0 0 0 0 0 0 0 0 0 0 0 0 0 0 0 0 0 0 0 0 0 0 0 0 0 0 0 0 0 0 0 0 0 0 0 0 0 0 0 0 0 0 0 0 0 0 0 0 0 0 0 0 0 0 0 0 0 0 0 0 0 0 0 0 0 0 0 0 0 0 0 0 0 0 0 0 0 0 0 0 0 0 0 0 0 0 0 0 0 0 0 0 0 0 </DataArray>
<DataArray type="Float32" Name="temperature" format="ascii">
238.956 201.801 109.104 257.321 264.737 367.793 232.292 299.953 325.802 119.921 203.66 170.911 313.353 261.75 178.158 388.14 281.474 300.7 230.871 78.8604 369.993 1e-15 275.065 198.981 125.063 0 63.3956 278.627 62.87 107.909 221.684 43.2219 89.5864 232.035 389.115 247.961 87.3743 286.462 31.2768 179.742 54.5975 302.237 273.258 326.405 508.834 188.688 398.818 301.61 296.925 393.174 169.937 216.841 365.503 174.183 425.782 9.38395e-14 205.799 1e-15 394.535 514.611 114.79 1.87012e-13 214.616 262.975 191.009 9.42341e-14 218.081 309.012 0 268.381 259.608 71.4289 316.354 317.033 346.403 349.483 374.998 235.119 264.099 132.226 300.053 415.21 180.526 337.573 312.66 218.808 323.477 315.023 196.412 262.887 338.245 98.6108 403.577 304.662 370.677 181.134 202.628 130.963 589.058 204.601 0 47.4884 338.105 261.799 1e-15 234.869 1e-15 258.42 171.841 557.111 286.064 172.252 322.211 456.78 271.402 141.247 580.027 591.482 369.687 440.26 9.99376 393.905 376.237 623.411 604.489 52.5043 146.018 1e-15 430.657 487.774 407.553 341.053 329.817 553.365 357.386 242.752 490.844 337.6 262.465 1.23133e-14 118.566 484.827 1e-15 264.297 208.973 245.682 221.078 272.651 281.178 272.369 428.611 2.12249e-15 387.344 981.318 444.511 188.521 451.922 8.26602 513.882 386.625 500.539 674.734 275.089 254.721 337.966 470.005 316.985 179.503 277.805 424.106 198.626 431.368 5.27431e-14 274.767 178.162 428.433 361.979 241.704 173.346 176.354 187.793 288.7 175.211 535.175 43.0985 230.062 192.443 195.791 126.193 115.454 138.363 295.894 214.273 455.806 567.512 262.107 414.138 124.482 245.737 274.706 223.951 377.969 55.1627 212.25 386.618 44.6205 174.995 405.282 292.718 1e-15 35.7747 123.037 474.264 181.617 142.098 168.791 </DataArray>
<DataArray type="Float32" Name="velocity" format="ascii">
236.202 282.3 407.69 386.369 305.742 202.884 360.408 394.017 785.133 640.03 532.592 418.785 294.094 561.056 784.08 786.539 443.716 206.536 340.334 521.456 803.166 963.73 598.639 733.075 149.217 0 687.415 508.222 388.279 334.602 77.4412 320.265 698.493 307.704 255.872 201.417 250.56 260.179 488.487 310.912 388.489 186.084 427.274 724.191 747.914 905.01 450.41 210.098 699.474 1032.49 1121.33 1324.02 692.841 468.303 558.794 717.529 1164.65 1426.8 760.082 515.454 537.643 886.662 849.046 854.571 700.369 690.539 187.744 865.581 0 771.249 218.824 292.183 238.21 345.483 671.971 421.227 247.481 144.028 734.217 940.193 1102.88 974.939 752.538 545.072 949.789 1278.25 1893.56 1615.27 640.748 590.387 970.25 1118.68 1754.28 1588.94 832.245 643.544 852.685 973.982 927.456 1163.13 0 516.354 406.126 540.53 596.174 627.146 681.696 255 404.439 387.217 319.383 302.348 248.105 194.501 457.6 1055.85 1035.17 870.784 729.374 328.014 819.811 1223.57 1863.93 1490.39 1125.37 555.344 1082.9 1507.77 1563.46 1442.51 974.282 473.981 582.406 795.468 944.825 1108.06 697.103 726.314 536.922 415.934 507.068 578.802 436.801 310.272 317.687 363.747 605.15 281.592 224.768 303.787 448.594 423.079 617.141 493.795 74.5449 153.79 609.661 922.174 921.99 764.712 500.41 318.491 417.123 646.224 777.886 787.19 633.82 298.086 420.838 476.509 822.094 841.897 468.378 274.683 273.71 477.211 536.268 437.261 492.042 478.23 156.933 379.368 142.928 175.246 229.224 170.304 173.114 240.768 202.789 305.845 350.86 283.896 347.584 130.383 485.982 253.125 111.788 349.326 232.972 468.023 613.792 574.098 449.122 590.35 195.697 334.611 290.503 390.649 387.19 499.633 112.346 60.2498 207.433 439.352 301.308 160.866 </DataArray>
<DataArray type="Float32" Name="E_field" format="ascii">
0 0 0 0 0 0 0 0 0 0 0 0 0 0 0 0 0 0 0 0 0 0 0 0 0 0 0 0 0 0 0 0 0 0 0 0 0 0 0 0 0 0 0 0 0 0 0 0 0 0 0 0 0 0 0 0 0 0 0 0 0 0 0 0 0 0 0 0 0 0 0 0 0 0 0 0 0 0 0 0 0 0 0 0 0 0 0 0 0 0 0 0 0 0 0 0 0 0 0 0 0 0 0 0 0 0 0 0 0 0 0 0 0 0 0 0 0 0 0 0 0 0 0 0 0 0 0 0 0 0 0 0 0 0 0 0 0 0 0 0 0 0 0 0 0 0 0 0 0 0 0 0 0 0 0 0 0 0 0 0 0 0 0 0 0 0 0 0 0 0 0 0 0 0 0 0 0 0 0 0 0 0 0 0 0 0 0 0 0 0 0 0 0 0 0 0 0 0 0 0 0 0 0 0 0 0 0 0 0 0 0 0 0 0 0 0 </DataArray>
</CellData>
<PointData Scalars="number_density">
<DataArray type="Float32" Name="number_density" format="ascii">
1.512e+16 4.32e+15 1.512e+16 1.08e+16 2.376e+16 1.08e+16 1.512e+16 1.08e+16 1.296e+16 1.188e+16 9.72e+15 6.48e+15 5.4e+15 1.08e+16 1.404e+16 1.08e+16 7.56e+15 9.72e+15 1.296e+16 9.72e+15 1.188e+16 1.188e+16 9.72e+15 1.08e+16 1.188e+16 1.188e+16 7.56e+15 9.72e+15 1.404e+16 1.08e+16 1.728e+16 1.188e+16 8.64e+15 6.48e+15 3.24e+15 6.48e+15 8.64e+15 1.188e+16 1.296e+16 1.188e+16 1.296e+16 9.72e+15 8.64e+15 9.72e+15 8.64e+15 7.56e+15 7.56e+15 1.62e+16 9.72e+15 4.32e+15 9.72e+15 1.404e+16 1.836e+16 4.32e+15 7.56e+15 9.72e+15 8.64e+15 9.72e+15 1.08e+16 1.296e+16 1.512e+16 7.56e+15 9.72e+15 1.08e+16 9.72e+15 9.72e+15 8.64e+15 8.64e+15 9.72e+15 1.026e+16 1.296e+16 1.08e+16 9.72e+15 1.08e+16 1.026e+16 1.404e+16 1.296e+16 1.026e+16 1.188e+16 1.026e+16 9.18e+15 1.134e+16 1.134e+16 1.08e+16 9.72e+15 8.1e+15 1.296e+16 1.188e+16 1.026e+16 9.18e+15 1.134e+16 1.458e+16 1.134e+16 9.72e+15 7.02e+15 9.72e+15 8.64e+15 7.56e+15 7.02e+15 7.02e+15 1.188e+16 1.026e+16 8.64e+15 1.08e+16 8.1e+15 1.026e+16 1.08e+16 1.296e+16 1.08e+16 9.72e+15 7.02e+15 1.026e+16 1.404e+16 8.64e+15 7.02e+15 5.94e+15 9.72e+15 1.296e+16 9.18e+15 3.78e+15 7.56e+15 1.134e+16 1.188e+16 9.72e+15 4.32e+15 7.02e+15 8.64e+15 7.56e+15 7.56e+15 4.86e+15 8.1e+15 7.02e+15 9.72e+15 5.94e+15 7.02e+15 9.72e+15 7.02e+15 7.56e+15 5.94e+15 8.64e+15 1.08e+16 8.64e+15 7.56e+15 7.56e+15 7.56e+15 9.72e+15 9.72e+15 8.64e+15 1.08e+16 9.18e+15 1.026e+16 9.18e+15 5.94e+15 1.026e+16 1.08e+16 1.134e+16 1.242e+16 1.026e+16 8.64e+15 9.72e+15 9.18e+15 1.242e+16 1.242e+16 9.18e+15 1.08e+16 1.08e+16 7.56e+15 9.18e+15 1.08e+16 1.242e+16 1.458e+16 1.026e+16 1.026e+16 1.08e+16 1.188e+16 1.296e+16 1.35e+16 1.242e+16 1.188e+16 1.026e+16 1.08e+16 1.296e+16 1.296e+16 1.188e+16 8.64e+15 8.1e+15 9.18e+15 8.64e+15 1.08e+16 9.18e+15 8.1e+15 7.56e+15 7.02e+15 1.242e+16 1.08e+16 7.56e+15 7.56e+15 8.64e+15 1.242e+16 1.188e+16 1.026e+16 9.18e+15 8.64e+15 9.72e+15 8.64e+15 9.18e+15 9.72e+15 9.18e+15 5.4e+15 4.32e+15 5.94e+15 7.56e+15 8.1e+15 5.94e+15 3.78e+15 9.18e+15 1.08e+16 1.242e+16 1.161e+16 1.107e+16 8.64e+15 8.1e+15 7.56e+15 1.269e+16 1.35e+16 1.161e+16 1.107e+16 9.72e+15 1.134e+16 9.99e+15 9.45e+15 1.08e+16 1.134e+16 6.75e+15 5.4e+15 7.02e+15 8.1e+15 8.64e+15 6.48e+15 4.32e+15 8.37e+15 9.72e+15 8.91e+15 1.107e+16 9.99e+15 1.053e+16 1.107e+16 9.18e+15 1.161e+16 1.215e+16 1.269e+16 1.269e+16 1.08e+16 1.161e+16 1.053e+16 1.053e+16 1.026e+16 1.161e+16 8.64e+15 8.37e+15 9.45e+15 7.29e+15 7.56e+15 8.37e+15 6.48e+15 8.64e+15 7.56e+15 5.67e+15 1.08e+16 1.053e+16 1.377e+16 1.566e+16 1.404e+16 9.18e+15 1.08e+16 1.674e+16 1.593e+16 1.134e+16 7.56e+15 9.18e+15 1.323e+16 1.134e+16 9.45e+15 8.37e+15 8.1e+15 9.18e+15 8.37e+15 8.64e+15 8.91e+15 6.75e+15 8.37e+15 7.29e+15 7.83e+15 9.45e+15 1.053e+16 1.431e+16 1.512e+16 1.431e+16 7.56e+15 9.99e+15 1.782e+16 1.701e+16 1.161e+16 7.56e+15 9.99e+15 1.62e+16 1.512e+16 8.91e+15 1.08e+16 8.91e+15 9.72e+15 1.026e+16 9.99e+15 9.72e+15 7.83e+15 8.37e+15 7.29e+15 8.37e+15 8.91e+15 9.72e+15 1.161e+16 9.99e+15 1.08e+16 7.83e+15 8.64e+15 1.188e+16 1.35e+16 1.188e+16 1.026e+16 1.107e+16 1.431e+16 1.431e+16 9.45e+15 1.242e+16 1.053e+16 1.107e+16 9.45e+15 7.29e+15 9.45e+15 8.91e+15 9.72e+15 8.1e+15 7.83e+15 </DataArray>
<DataArray type="Float32" Name="potential" format="ascii">
0 0 0 0 0 0 0 0 0 0 0 0 0 0 0 0 0 0 0 0 0 0 0 0 0 0 0 0 0 0 0 0 0 0 0 0 0 0 0 0 0 0 0 0 0 0 0 0 0 0 0 0 0 0 0 0 0 0 0 0 0 0 0 0 0 0 0 0 0 0 0 0 0 0 0 0 0 0 0 0 0 0 0 0 0 0 0 0 0 0 0 0 0 0 0 0 0 0 0 0 0 0 0 0 0 0 0 0 0 0 0 0 0 0 0 0 0 0 0 0 0 0 0 0 0 0 0 0 0 0 0 0 0 0 0 0 0 0 0 0 0 0 0 0 0 0 0 0 0 0 0 0 0 0 0 0 0 0 0 0 0 0 0 0 0 0 0 0 0 0 0 0 0 0 0 0 0 0 0 0 0 0 0 0 0 0 0 0 0 0 0 0 0 0 0 0 0 0 0 0 0 0 0 0 0 0 0 0 0 0 0 0 0 0 0 0 0 0 0 0 0 0 0 0 0 0 0 0 0 0 0 0 0 0 0 0 0 0 0 0 0 0 0 0 0 0 0 0 0 0 0 0 0 0 0 0 0 0 0 0 0 0 0 0 0 0 0 0 0 0 0 0 0 0 0 0 0 0 0 0 0 0 0 0 0 0 0 0 0 0 0 0 0 0 0 0 0 0 0 0 0 0 0 0 0 0 0 0 0 0 0 0 0 0 0 0 0 0 0 0 0 0 0 0 0 0 0 0 0 0 0 0 0 0 0 0 0 0 0 0 0 0 0 </DataArray>
<DataArray type="Float32" Name="temperature" format="ascii">