<VTKFile type="UnstructuredGrid" version="0.1" byte_order="LittleEndian">
<UnstructuredGrid>
<Piece NumberOfPoints="343" NumberOfCells="216">
<Points>
<DataArray type="Float32" NumberOfComponents="3" format="ascii">
-0.05 -0.05 -0.05 0.05 -0.05 -0.05 0.05 0.05 -0.05 -0.05 0.05 -0.05 -0.05 -0.05 0.05 0.05 -0.05 0.05 0.05 0.05 0.05 -0.05 0.05 0.05 -0.0333333 -0.05 -0.05 -0.0166667 -0.05 -0.05 0 -0.05 -0.05 0.0166667 -0.05 -0.05 0.0333333 -0.05 -0.05 0.05 -0.0333333 -0.05 0.05 -0.0166667 -0.05 0.05 0 -0.05 0.05 0.0166667 -0.05 0.05 0.0333333 -0.05 0.0333333 0.05 -0.05 0.0166667 0.05 -0.05 0 0.05 -0.05 -0.0166667 0.05 -0.05 -0.0333333 0.05 -0.05 -0.05 0.0333333 -0.05 -0.05 0.0166667 -0.05 -0.05 0 -0.05 -0.05 -0.0166667 -0.05 -0.05 -0.0333333 -0.05 -0.0333333 -0.05 0.05 -0.0166667 -0.05 0.05 0 -0.05 0.05 0.0166667 -0.05 0.05 0.0333333 -0.05 0.05 0.05 -0.0333333 0.05 0.05 -0.0166667 0.05 0.05 0 0.05 0.05 0.0166667 0.05 0.05 0.0333333 0.05 0.0333333 0.05 0.05 0.0166667 0.05 0.05 0 0.05 0.05 -0.0166667 0.05 0.05 -0.0333333 0.05 0.05 -0.05 0.0333333 0.05 -0.05 0.0166667 0.05 -0.05 0 0.05 -0.05 -0.0166667 0.05 -0.05 -0.0333333 0.05 -0.05 -0.05 -0.0333333 -0.05 -0.05 -0.0166667 -0.05 -0.05 0 -0.05 -0.05 0.0166667 -0.05 -0.05 0.0333333 0.05 -0.05 -0.0333333 0.05 -0.05 -0.0166667 0.05 -0.05 0 0.05 -0.05 0.0166667 0.05 -0.05 0.0333333 0.05 0.05 -0.0333333 0.05 0.05 -0.0166667 0.05 0.05 0 0.05 0.05 0.0166667 0.05 0.05 0.0333333 -0.05 0.05 -0.0333333 -0.05 0.05 -0.0166667 -0.05 0.05 0 -0.05 0.05 0.0166667 -0.05 0.05 0.0333333 -0.0333333 0.0333333 -0.05 -0.0333333 0.0166667 -0.05 -0.0333333 -3.55271e-18 -0.05 -0.0333333 -0.0166667 -0.05 -0.0333333 -0.0333333 -0.05 -0.0166667 0.0333333 -0.05 -0.0166667 0.0166667 -0.05 -0.0166667 -7.10543e-18 -0.05 -0.0166667 -0.0166667 -0.05 -0.0166667 -0.0333333 -0.05 1.77636e-18 0.0333333 -0.05 5.32907e-18 0.0166667 -0.05 3.55271e-18 -1.77636e-18 -0.05 7.10543e-18 -0.0166667 -0.05 3.55271e-18 -0.0333333 -0.05 0.0166667 0.0333333 -0.05 0.0166667 0.0166667 -0.05 0.0166667 -7.10543e-18 -0.05 0.0166667 -0.0166667 -0.05 0.0166667 -0.0333333 -0.05 0.0333333 0.0333333 -0.05 0.0333333 0.0166667 -0.05 0.0333333 -1.77636e-18 -0.05 0.0333333 -0.0166667 -0.05 0.0333333 -0.0333333 -0.05 -0.0333333 -0.0333333 0.05 -0.0333333 -0.0166667 0.05 -0.0333333 0 0.05 -0.0333333 0.0166667 0.05 -0.0333333 0.0333333 0.05 -0.0166667 -0.0333333 0.05 -0.0166667 -0.0166667 0.05 -0.0166667 0 0.05 -0.0166667 0.0166667 0.05 -0.0166667 0.0333333 0.05 0 -0.0333333 0.05 0 -0.0166667 0.05 0 0 0.05 0 0.0166667 0.05 0 0.0333333 0.05 0.0166667 -0.0333333 0.05 0.0166667 -0.0166667 0.05 0.0166667 0 0.05 0.0166667 0.0166667 0.05 0.0166667 0.0333333 0.05 0.0333333 -0.0333333 0.05 0.0333333 -0.0166667 0.05 0.0333333 1.77636e-18 0.05 0.0333333 0.0166667 0.05 0.0333333 0.0333333 0.05 -0.0333333 -0.05 -0.0333333 -0.0333333 -0.05 -0.0166667 -0.0333333 -0.05 0 -0.0333333 -0.05 0.0166667 -0.0333333 -0.05 0.0333333 -0.0166667 -0.05 -0.0333333 -0.0166667 -0.05 -0.0166667 -0.0166667 -0.05 0 -0.0166667 -0.05 0.0166667 -0.0166667 -0.05 0.0333333 0 -0.05 -0.0333333 0 -0.05 -0.0166667 0 -0.05 0 0 -0.05 0.0166667 0 -0.05 0.0333333 0.0166667 -0.05 -0.0333333 0.0166667 -0.05 -0.0166667 0.0166667 -0.05 0 0.0166667 -0.05 0.0166667 0.0166667 -0.05 0.0333333 0.0333333 -0.05 -0.0333333 0.0333333 -0.05 -0.0166667 0.0333333 -0.05 1.77636e-18 0.0333333 -0.05 0.0166667 0.0333333 -0.05 0.0333333 0.05 -0.0333333 -0.0333333 0.05 -0.0333333 -0.0166667 0.05 -0.0333333 0 0.05 -0.0333333 0.0166667 0.05 -0.0333333 0.0333333 0.05 -0.0166667 -0.0333333 0.05 -0.0166667 -0.0166667 0.05 -0.0166667 0 0.05 -0.0166667 0.0166667 0.05 -0.0166667 0.0333333 0.05 0 -0.0333333 0.05 0 -0.0166667 0.05 0 0 0.05 0 0.0166667 0.05 0 0.0333333 0.05 0.0166667 -0.0333333 0.05 0.0166667 -0.0166667 0.05 0.0166667 0 0.05 0.0166667 0.0166667 0.05 0.0166667 0.0333333 0.05 0.0333333 -0.0333333 0.05 0.0333333 -0.0166667 0.05 0.0333333 1.77636e-18 0.05 0.0333333 0.0166667 0.05 0.0333333 0.0333333 0.0333333 0.05 -0.0333333 0.0333333 0.05 -0.0166667 0.0333333 0.05 0 0.0333333 0.05 0.0166667 0.0333333 0.05 0.0333333 0.0166667 0.05 -0.0333333 0.0166667 0.05 -0.0166667 0.0166667 0.05 0 0.0166667 0.05 0.0166667 0.0166667 0.05 0.0333333 0 0.05 -0.0333333 0 0.05 -0.0166667 0 0.05 0 0 0.05 0.0166667 0 0.05 0.0333333 -0.0166667 0.05 -0.0333333 -0.0166667 0.05 -0.0166667 -0.0166667 0.05 0 -0.0166667 0.05 0.0166667 -0.0166667 0.05 0.0333333 -0.0333333 0.05 -0.0333333 -0.0333333 0.05 -0.0166667 -0.0333333 0.05 1.77636e-18 -0.0333333 0.05 0.0166667 -0.0333333 0.05 0.0333333 -0.05 0.0333333 -0.0333333 -0.05 0.0333333 -0.0166667 -0.05 0.0333333 0 -0.05 0.0333333 0.0166667 -0.05 0.0333333 0.0333333 -0.05 0.0166667 -0.0333333 -0.05 0.0166667 -0.0166667 -0.05 0.0166667 0 -0.05 0.0166667 0.0166667 -0.05 0.0166667 0.0333333 -0.05 0 -0.0333333 -0.05 0 -0.0166667 -0.05 0 0 -0.05 0 0.0166667 -0.05 0 0.0333333 -0.05 -0.0166667 -0.0333333 -0.05 -0.0166667 -0.0166667 -0.05 -0.0166667 0 -0.05 -0.0166667 0.0166667 -0.05 -0.0166667 0.0333333 -0.05 -0.0333333 -0.0333333 -0.05 -0.0333333 -0.0166667 -0.05 -0.0333333 1.77636e-18 -0.05 -0.0333333 0.0166667 -0.05 -0.0333333 0.0333333 -0.0333333 0.0333333 -0.0333333 -0.0333333 0.0333333 -0.0166667 -0.0333333 0.0333333 4.44089e-19 -0.0333333 0.0333333 0.0166667 -0.0333333 0.0333333 0.0333333 -0.0333333 0.0166667 -0.0333333 -0.0333333 0.0166667 -0.0166667 -0.0333333 0.0166667 -4.44089e-18 -0.0333333 0.0166667 0.0166667 -0.0333333 0.0166667 0.0333333 -0.0333333 -6.66134e-18 -0.0333333 -0.0333333 -9.76996e-18 -0.0166667 -0.0333333 -1.77636e-18 -1.77636e-18 -0.0333333 -1.77636e-18 0.0166667 -0.0333333 3.55271e-18 0.0333333 -0.0333333 -0.0166667 -0.0333333 -0.0333333 -0.0166667 -0.0166667 -0.0333333 -0.0166667 1.77636e-18 -0.0333333 -0.0166667 0.0166667 -0.0333333 -0.0166667 0.0333333 -0.0333333 -0.0333333 -0.0333333 -0.0333333 -0.0333333 -0.0166667 -0.0333333 -0.0333333 0 -0.0333333 -0.0333333 0.0166667 -0.0333333 -0.0333333 0.0333333 -0.0166667 0.0333333 -0.0333333 -0.0166667 0.0333333 -0.0166667 -0.0166667 0.0333333 2.66454e-18 -0.0166667 0.0333333 0.0166667 -0.0166667 0.0333333 0.0333333 -0.0166667 0.0166667 -0.0333333 -0.0166667 0.0166667 -0.0166667 -0.0166667 0.0166667 -1.77636e-18 -0.0166667 0.0166667 0.0166667 -0.0166667 0.0166667 0.0333333 -0.0166667 -1.06581e-17 -0.0333333 -0.0166667 -1.15463e-17 -0.0166667 -0.0166667 -3.55271e-18 0 -0.0166667 -8.88178e-18 0.0166667 -0.0166667 -1.77636e-18 0.0333333 -0.0166667 -0.0166667 -0.0333333 -0.0166667 -0.0166667 -0.0166667 -0.0166667 -0.0166667 3.55271e-18 -0.0166667 -0.0166667 0.0166667 -0.0166667 -0.0166667 0.0333333 -0.0166667 -0.0333333 -0.0333333 -0.0166667 -0.0333333 -0.0166667 -0.0166667 -0.0333333 0 -0.0166667 -0.0333333 0.0166667 -0.0166667 -0.0333333 0.0333333 3.44169e-18 0.0333333 -0.0333333 1.02141e-17 0.0333333 -0.0166667 2.66454e-18 0.0333333 -8.88178e-19 6.21725e-18 0.0333333 0.0166667 1.33227e-18 0.0333333 0.0333333 7.99361e-18 0.0166667 -0.0333333 8.43769e-18 0.0166667 -0.0166667 8.88178e-19 0.0166667 8.88178e-19 7.99361e-18 0.0166667 0.0166667 3.55271e-18 0.0166667 0.0333333 3.55271e-18 -1.77636e-18 -0.0333333 9.76996e-18 -9.76996e-18 -0.0166667 0 -8.88178e-19 -8.88178e-19 8.88178e-18 -8.88178e-18 0.0166667 1.77636e-18 -1.77636e-18 0.0333333 1.02141e-17 -0.0166667 -0.0333333 1.24345e-17 -0.0166667 -0.0166667 3.55271e-18 -0.0166667 -1.77636e-18 8.88178e-18 -0.0166667 0.0166667 3.55271e-18 -0.0166667 0.0333333 5.77316e-18 -0.0333333 -0.0333333 4.44089e-18 -0.0333333 -0.0166667 1.77636e-18 -0.0333333 1.77636e-18 5.32907e-18 -0.0333333 0.0166667 0 -0.0333333 0.0333333 0.0166667 0.0333333 -0.0333333 0.0166667 0.0333333 -0.0166667 0.0166667 0.0333333 -2.66454e-18 0.0166667 0.0333333 0.0166667 0.0166667 0.0333333 0.0333333 0.0166667 0.0166667 -0.0333333 0.0166667 0.0166667 -0.0166667 0.0166667 0.0166667 3.10862e-18 0.0166667 0.0166667 0.0166667 0.0166667 0.0166667 0.0333333 0.0166667 -1.24345e-17 -0.0333333 0.0166667 -1.37668e-17 -0.0166667 0.0166667 -3.55271e-18 -1.77636e-18 0.0166667 -6.21725e-18 0.0166667 0.0166667 -8.88178e-19 0.0333333 0.0166667 -0.0166667 -0.0333333 0.0166667 -0.0166667 -0.0166667 0.0166667 -0.0166667 2.66454e-18 0.0166667 -0.0166667 0.0166667 0.0166667 -0.0166667 0.0333333 0.0166667 -0.0333333 -0.0333333 0.0166667 -0.0333333 -0.0166667 0.0166667 -0.0333333 0 0.0166667 -0.0333333 0.0166667 0.0166667 -0.0333333 0.0333333 0.0333333 0.0333333 -0.0333333 0.0333333 0.0333333 -0.0166667 0.0333333 0.0333333 3.33067e-19 0.0333333 0.0333333 0.0166667 0.0333333 0.0333333 0.0333333 0.0333333 0.0166667 -0.0333333 0.0333333 0.0166667 -0.0166667 0.0333333 0.0166667 1.11022e-18 0.0333333 0.0166667 0.0166667 0.0333333 0.0166667 0.0333333 0.0333333 -4.44089e-18 -0.0333333 0.0333333 -4.21885e-18 -0.0166667 0.0333333 8.88178e-19 8.88178e-19 0.0333333 -1.33227e-18 0.0166667 0.0333333 3.55271e-18 0.0333333 0.0333333 -0.0166667 -0.0333333 0.0333333 -0.0166667 -0.0166667 0.0333333 -0.0166667 2.22045e-18 0.0333333 -0.0166667 0.0166667 0.0333333 -0.0166667 0.0333333 0.0333333 -0.0333333 -0.0333333 0.0333333 -0.0333333 -0.0166667 0.0333333 -0.0333333 2.22045e-18 0.0333333 -0.0333333 0.0166667 0.0333333 -0.0333333 0.0333333 </DataArray>
</Points>
<Cells>
<DataArray type="Int32" Name="connectivity" format="ascii">
68 22 3 23 218 188 63 193 218 188 63 193 219 189 64 194 219 189 64 194 220 190 65 195 220 190 65 195 221 191 66 196 221 191 66 196 222 192 67 197 222 192 67 197 97 42 7 43 69 68 23 24 223 218 193 198 223 218 193 198 224 219 194 199 224 219 194 199 225 220 195 200 225 220 195 200 226 221 196 201 226 221 196 201 227 222 197 202 227 222 197 202 96 97 43 44 70 69 24 25 228 223 198 203 228 223 198 203 229 224 199 204 229 224 199 204 230 225 200 205 230 225 200 205 231 226 201 206 231 226 201 206 232 227 202 207 232 227 202 207 95 96 44 45 71 70 25 26 233 228 203 208 233 228 203 208 234 229 204 209 234 229 204 209 235 230 205 210 235 230 205 210 236 231 206 211 236 231 206 211 237 232 207 212 237 232 207 212 94 95 45 46 72 71 26 27 238 233 208 213 238 233 208 213 239 234 209 214 239 234 209 214 240 235 210 215 240 235 210 215 241 236 211 216 241 236 211 216 242 237 212 217 242 237 212 217 93 94 46 47 8 72 27 0 118 238 213 48 118 238 213 48 119 239 214 49 119 239 214 49 120 240 215 50 120 240 215 50 121 241 216 51 121 241 216 51 122 242 217 52 122 242 217 52 28 93 47 4 73 21 22 68 243 183 188 218 243 183 188 218 244 184 189 219 244 184 189 219 245 185 190 220 245 185 190 220 246 186 191 221 246 186 191 221 247 187 192 222 247 187 192 222 102 41 42 97 74 73 68 69 248 243 218 223 248 243 218 223 249 244 219 224 249 244 219 224 250 245 220 225 250 245 220 225 251 246 221 226 251 246 221 226 252 247 222 227 252 247 222 227 101 102 97 96 75 74 69 70 253 248 223 228 253 248 223 228 254 249 224 229 254 249 224 229 255 250 225 230 255 250 225 230 256 251 226 231 256 251 226 231 257 252 227 232 257 252 227 232 100 101 96 95 76 75 70 71 258 253 228 233 258 253 228 233 259 254 229 234 259 254 229 234 260 255 230 235 260 255 230 235 261 256 231 236 261 256 231 236 262 257 232 237 262 257 232 237 99 100 95 94 77 76 71 72 263 258 233 238 263 258 233 238 264 259 234 239 264 259 234 239 265 260 235 240 265 260 235 240 266 261 236 241 266 261 236 241 267 262 237 242 267 262 237 242 98 99 94 93 9 77 72 8 123 263 238 118 123 263 238 118 124 264 239 119 124 264 239 119 125 265 240 120 125 265 240 120 126 266 241 121 126 266 241 121 127 267 242 122 127 267 242 122 29 98 93 28 78 20 21 73 268 178 183 243 268 178 183 243 269 179 184 244 269 179 184 244 270 180 185 245 270 180 185 245 271 181 186 246 271 181 186 246 272 182 187 247 272 182 187 247 107 40 41 102 79 78 73 74 273 268 243 248 273 268 243 248 274 269 244 249 274 269 244 249 275 270 245 250 275 270 245 250 276 271 246 251 276 271 246 251 277 272 247 252 277 272 247 252 106 107 102 101 80 79 74 75 278 273 248 253 278 273 248 253 279 274 249 254 279 274 249 254 280 275 250 255 280 275 250 255 281 276 251 256 281 276 251 256 282 277 252 257 282 277 252 257 105 106 101 100 81 80 75 76 283 278 253 258 283 278 253 258 284 279 254 259 284 279 254 259 285 280 255 260 285 280 255 260 286 281 256 261 286 281 256 261 287 282 257 262 287 282 257 262 104 105 100 99 82 81 76 77 288 283 258 263 288 283 258 263 289 284 259 264 289 284 259 264 290 285 260 265 290 285 260 265 291 286 261 266 291 286 261 266 292 287 262 267 292 287 262 267 103 104 99 98 10 82 77 9 128 288 263 123 128 288 263 123 129 289 264 124 129 289 264 124 130 290 265 125 130 290 265 125 131 291 266 126 131 291 266 126 132 292 267 127 132 292 267 127 30 103 98 29 83 19 20 78 293 173 178 268 293 173 178 268 294 174 179 269 294 174 179 269 295 175 180 270 295 175 180 270 296 176 181 271 296 176 181 271 297 177 182 272 297 177 182 272 112 39 40 107 84 83 78 79 298 293 268 273 298 293 268 273 299 294 269 274 299 294 269 274 300 295 270 275 300 295 270 275 301 296 271 276 301 296 271 276 302 297 272 277 302 297 272 277 111 112 107 106 85 84 79 80 303 298 273 278 303 298 273 278 304 299 274 279 304 299 274 279 305 300 275 280 305 300 275 280 306 301 276 281 306 301 276 281 307 302 277 282 307 302 277 282 110 111 106 105 86 85 80 81 308 303 278 283 308 303 278 283 309 304 279 284 309 304 279 284 310 305 280 285 310 305 280 285 311 306 281 286 311 306 281 286 312 307 282 287 312 307 282 287 109 110 105 104 87 86 81 82 313 308 283 288 313 308 283 288 314 309 284 289 314 309 284 289 315 310 285 290 315 310 285 290 316 311 286 291 316 311 286 291 317 312 287 292 317 312 287 292 108 109 104 103 11 87 82 10 133 313 288 128 133 313 288 128 134 314 289 129 134 314 289 129 135 315 290 130 135 315 290 130 136 316 291 131 136 316 291 131 137 317 292 132 137 317 292 132 31 108 103 30 88 18 19 83 318 168 173 293 318 168 173 293 319 169 174 294 319 169 174 294 320 170 175 295 320 170 175 295 321 171 176 296 321 171 176 296 322 172 177 297 322 172 177 297 117 38 39 112 89 88 83 84 323 318 293 298 323 318 293 298 324 319 294 299 324 319 294 299 325 320 295 300 325 320 295 300 326 321 296 301 326 321 296 301 327 322 297 302 327 322 297 302 116 117 112 111 90 89 84 85 328 323 298 303 328 323 298 303 329 324 299 304 329 324 299 304 330 325 300 305 330 325 300 305 331 326 301 306 331 326 301 306 332 327 302 307 332 327 302 307 115 116 111 110 91 90 85 86 333 328 303 308 333 328 303 308 334 329 304 309 334 329 304 309 335 330 305 310 335 330 305 310 336 331 306 311 336 331 306 311 337 332 307 312 337 332 307 312 114 115 110 109 92 91 86 87 338 333 308 313 338 333 308 313 339 334 309 314 339 334 309 314 340 335 310 315 340 335 310 315 341 336 311 316 341 336 311 316 342 337 312 317 342 337 312 317 113 114 109 108 12 92 87 11 138 338 313 133 138 338 313 133 139 339 314 134 139 339 314 134 140 340 315 135 140 340 315 135 141 341 316 136 141 341 316 136 142 342 317 137 142 342 317 137 32 113 108 31 17 2 18 88 163 58 168 318 163 58 168 318 164 59 169 319 164 59 169 319 165 60 170 320 165 60 170 320 166 61 171 321 166 61 171 321 167 62 172 322 167 62 172 322 37 6 38 117 16 17 88 89 158 163 318 323 158 163 318 323 159 164 319 324 159 164 319 324 160 165 320 325 160 165 320 325 161 166 321 326 161 166 321 326 162 167 322 327 162 167 322 327 36 37 117 116 15 16 89 90 153 158 323 328 153 158 323 328 154 159 324 329 154 159 324 329 155 160 325 330 155 160 325 330 156 161 326 331 156 161 326 331 157 162 327 332 157 162 327 332 35 36 116 115 14 15 90 91 148 153 328 333 148 153 328 333 149 154 329 334 149 154 329 334 150 155 330 335 150 155 330 335 151 156 331 336 151 156 331 336 152 157 332 337 152 157 332 337 34 35 115 114 13 14 91 92 143 148 333 338 143 148 333 338 144 149 334 339 144 149 334 339 145 150 335 340 145 150 335 340 146 151 336 341 146 151 336 341 147 152 337 342 147 152 337 342 33 34 114 113 1 13 92 12 53 143 338 138 53 143 338 138 54 144 339 139 54 144 339 139 55 145 340 140 55 145 340 140 56 146 341 141 56 146 341 141 57 147 342 142 57 147 342 142 5 33 113 32 </DataArray>
<DataArray type="Int32" Name="offsets" format="ascii">
8 16 24 32 40 48 56 64 72 80 88 96 104 112 120 128 136 144 152 160 168 176 184 192 200 208 216 224 232 240 248 256 264 272 280 288 296 304 312 320 328 336 344 352 360 368 376 384 392 400 408 416 424 432 440 448 456 464 472 480 488 496 504 512 520 528 536 544 552 560 568 576 584 592 600 608 616 624 632 640 648 656 664 672 680 688 696 704 712 720 728 736 744 752 760 768 776 784 792 800 808 816 824 832 840 848 856 864 872 880 888 896 904 912 920 928 936 944 952 960 968 976 984 992 1000 1008 1016 1024 1032 1040 1048 1056 1064 1072 1080 1088 1096 1104 1112 1120 1128 1136 1144 1152 1160 1168 1176 1184 1192 1200 1208 1216 1224 1232 1240 1248 1256 1264 1272 1280 1288 1296 1304 1312 1320 1328 1336 1344 1352 1360 1368 1376 1384 1392 1400 1408 1416 1424 1432 1440 1448 1456 1464 1472 1480 1488 1496 1504 1512 1520 1528 1536 1544 1552 1560 1568 1576 1584 1592 1600 1608 1616 1624 1632 1640 1648 1656 1664 1672 1680 1688 1696 1704 1712 1720 1728 </DataArray>
<DataArray type="UInt8" Name="types" format="ascii">
12 12 12 12 12 12 12 12 12 12 12 12 12 12 12 12 12 12 12 12 12 12 12 12 12 12 12 12 12 12 12 12 12 12 12 12 12 12 12 12 12 12 12 12 12 12 12 12 12 12 12 12 12 12 12 12 12 12 12 12 12 12 12 12 12 12 12 12 12 12 12 12 12 12 12 12 12 12 12 12 12 12 12 12 12 12 12 12 12 12 12 12 12 12 12 12 12 12 12 12 12 12 12 12 12 12 12 12 12 12 12 12 12 12 12 12 12 12 12 12 12 12 12 12 12 12 12 12 12 12 12 12 12 12 12 12 12 12 12 12 12 12 12 12 12 12 12 12 12 12 12 12 12 12 12 12 12 12 12 12 12 12 12 12 12 12 12 12 12 12 12 12 12 12 12 12 12 12 12 12 12 12 12 12 12 12 12 12 12 12 12 12 12 12 12 12 12 12 12 12 12 12 12 12 12 12 12 12 12 12 12 12 12 12 12 12 </DataArray>
</Cells>
<CellData Scalars="scalars">
<DataArray type="Float32" Name="number_density" format="ascii">
6.48e+15 6.48e+15 2.16e+15 8.64e+15 1.08e+16 4.32e+15 4.32e+15 2.16e+15 0 0 0 8.64e+15 4.32e+15 2.16e+15 0 0 4.32e+15 2.16e+15 4.32e+15 0 2.16e+15 2.16e+15 6.48e+15 4.32e+15 6.48e+15 0 2.16e+15 2.16e+15 2.16e+15 1.08e+16 1.08e+16 2.16e+15 0 2.16e+15 8.64e+15 1.08e+16 1.512e+16 1.512e+16 1.512e+16 6.48e+15 8.64e+15 8.64e+15 1.08e+16 1.08e+16 1.944e+16 1.08e+16 2.16e+15 8.64e+15 2.16e+15 6.48e+15 1.08e+16 4.32e+15 1.08e+16 4.32e+15 6.48e+15 4.32e+15 4.32e+15 8.64e+15 8.64e+15 4.32e+15 0 0 0 2.16e+15 2.16e+15 6.48e+15 6.48e+15 2.16e+15 0 8.64e+15 2.16e+15 6.48e+15 1.296e+16 6.48e+15 2.16e+15 2.16e+16 6.48e+15 1.08e+16 4.32e+15 8.64e+15 1.08e+16 2.592e+16 1.944e+16 8.64e+15 4.32e+15 1.296e+16 2.16e+15 1.08e+16 2.16e+16 1.512e+16 6.48e+15 8.64e+15 2.16e+15 8.64e+15 1.08e+16 2.16e+15 8.64e+15 0 6.48e+15 1.08e+16 4.32e+15 1.08e+16 4.32e+15 0 0 2.16e+15 0 2.16e+15 4.32e+15 1.512e+16 1.512e+16 3.672e+16 2.808e+16 1.728e+16 2.16e+15 1.728e+16 1.944e+16 2.376e+16 3.672e+16 1.512e+16 0 4.32e+15 1.296e+16 1.512e+16 1.944e+16 2.592e+16 4.32e+15 2.16e+15 1.296e+16 1.296e+16 8.64e+15 8.64e+15 4.32e+15 1.944e+16 4.32e+15 4.32e+15 6.48e+15 1.08e+16 4.32e+15 2.16e+15 0 4.32e+15 4.32e+15 1.296e+16 6.48e+15 1.512e+16 1.728e+16 5.4e+16 4.32e+16 8.64e+15 8.64e+15 8.64e+15 1.728e+16 7.56e+16 7.776e+16 2.808e+16 6.48e+15 8.64e+15 1.08e+16 3.672e+16 4.104e+16 6.48e+15 1.08e+16 1.296e+16 1.296e+16 1.08e+16 1.512e+16 6.48e+15 6.48e+15 1.296e+16 8.64e+15 1.08e+16 2.16e+15 1.08e+16 2.16e+15 6.48e+15 2.16e+15 4.32e+15 2.16e+15 2.16e+15 1.296e+16 8.64e+15 2.592e+16 3.456e+16 1.296e+16 1.944e+16 4.32e+15 1.512e+16 6.48e+15 2.592e+16 3.456e+16 1.944e+16 8.64e+15 1.944e+16 1.296e+16 1.296e+16 2.592e+16 1.512e+16 1.512e+16 2.16e+15 2.16e+15 6.48e+15 8.64e+15 4.32e+15 2.16e+15 8.64e+15 1.512e+16 8.64e+15 4.32e+15 6.48e+15 4.32e+15 6.48e+15 2.16e+15 6.48e+15 2.16e+15 8.64e+15 </DataArray>
<DataArray type="Float32" Name="potential" format="ascii">
0 0 0 0 0 0 0 0 0 0 0 0 0 0 0 0 0 0 0 0 0 0 0 0 0 0 0 0 0 0 0 0 0 0 0 0 0 0 0 0 0 0 0 0 0 0 0 0 0 0 0 0 0 0 0 0 0 0 0 0 0 0 0 0 0 0 0 0 0 0 0 0 0 0 0 0 0 0 0 0 0 0 0 0 0 0 0 0 0 0 0 0 0 0 0 0 0 0 0 0 0 0 0 0 0 0 0 0 0 0 0 0 0 0 0 0 0 0 0 0 0 0 0 0 0 0 0 0 0 0 0 0 0 0 0 0 0 0 0 0 0 0 0 0 0 0 0 0 0 0 0 0 0 0 0 0 0 0 0 0 0 0 0 0 0 0 0 0 0 0 0 0 0 0 0 0 0 0 0 0 0 0 0 0 0 0 0 0 0 0 0 0 0 0 0 0 0 0 0 0 0 0 0 0 0 0 0 0 0 0 0 0 0 0 0 0 </DataArray>
<DataArray type="Float32" Name="temperature" format="ascii">
227.877 335.471 1e-15 189.885 516.701 116.846 104.499 1e-15 0 0 0 195.077 192.504 9.38395e-14 0 0 152.338 1e-15 94.8797 0 1e-15 3.73358e-13 46.016 17.5493 126.184 0 4.72531e-14 4.72531e-14 2.39599e-14 240.26 121.67 4.72531e-14 0 4.72531e-14 320.748 68.3321 170.139 213.468 746.129 76.6485 358.449 240.626 222.515 268.352 318.065 527.149 1e-15 140.395 1e-15 702.241 525.023 290.112 269.707 79.3071 170.724 323.074 137.576 399.58 179.461 147.837 0 0 0 1e-15 1e-15 29.1276 97.8739 9.38395e-14 0 278.944 2.39599e-14 161.528 495.222 622.598 3.73025e-13 783.924 102.753 296.033 59.634 589.091 341.978 537.636 983.659 191.864 375.713 576.816 1e-15 897.828 808.603 336.811 197.011 84.6356 9.32062e-13 692.694 951.359 3.73358e-13 236.193 0 605.59 450.122 292.988 255.863 76.7855 0 0 1e-15 0 6.48997e-15 415.091 1013.64 911.666 1289.38 633.142 642.094 4.72531e-14 898.437 868.363 2399.08 1333.11 691.107 0 601.502 316.048 1637.89 1909.76 800.412 200.096 1e-15 509.07 1619.07 1435.74 198.593 232.77 358.46 1440.48 123.663 832.456 529.172 358.642 9.38395e-14 0 311.996 90.0978 203.461 122.378 360.252 1248.31 2573.08 2554.7 317.203 118.482 439.06 1417.07 2687.78 2079.88 457.477 171.106 816.294 931.899 2478.71 1960.76 807.518 741.789 428.162 607.687 507.066 1004.47 172.814 183.832 132.795 532.301 298.949 1e-15 197.464 6.48997e-15 175.918 9.38395e-14 220.335 1e-15 1e-15 301.132 287.833 1510.74 2103.07 3057.74 336.479 108.419 518.733 699.184 1495.96 1941.85 528.545 288.17 1029.22 563.287 946.454 414.06 224.797 298.351 1e-15 1e-15 288.4 890.642 38.6904 1e-15 258.165 363.037 88.256 41.4468 330.136 33.0162 315.335 1e-15 207.089 9.38395e-14 204.348 </DataArray>
<DataArray type="Float32" Name="velocity" format="ascii">
464.601 538.65 699.104 518.343 422.327 175.176 726.22 573.605 0 0 0 441.681 955.783 1093.44 0 0 837.091 541.084 647.7 0 1763.27 1548.19 1124.84 871.059 573.862 0 1166.23 950.889 584.717 649.48 169.686 713.624 0 809.501 473.955 492.501 529.152 652.103 1001.27 834.303 1236.15 494.343 990.327 1101.19 1739.37 1513.92 1136.44 839.773 835.217 1963.87 1997.86 1779.74 1448.59 1354.66 1062.11 1693.5 2236.67 2077.52 1230.26 980.212 0 0 0 1403.96 671.772 850.177 643.604 796.469 0 1034.11 892.48 539.918 852.364 745.153 1127.15 1258.46 256.339 324.147 1031.58 1858.25 2460.55 2261.11 1517.45 806.812 1560.01 2340.05 3007.08 2958.51 1886.5 1457.43 1432.55 2300.58 2576.16 2591.16 2064.35 1474.92 1102.33 0 1986.25 1998.69 1238 711.582 814.411 0 0 1504.21 0 699.242 607.671 1197.63 1826.26 1384.13 736.969 424.447 1041.31 2141.18 2866.72 2531.87 1875.97 864.134 0 2622.08 3109.86 3312.58 2502.08 1316.18 1558.07 2210.53 2708.46 2459.37 1530.99 1154.91 1153.3 1611.04 1788.34 1653.12 1502.93 706.458 649.974 1329.34 0 1199.18 1045.51 568.138 405.375 767.368 1286 1841.62 1737.16 247.707 582.84 1388.01 1899.79 1904.1 1771.4 575.052 1178.59 1600.93 1591.19 2067.53 1836.25 957.727 961.333 1670.55 1679.82 1823.91 1172.84 952.327 641.891 974.676 1248.66 1298.25 1140.91 585.074 416.907 531.508 952.481 762.067 800.918 168.778 269.477 422.163 532.363 813.644 2000.58 251.126 321.07 616.707 1162.12 1106.12 1618.5 348.401 549.861 839.919 1111.09 1340.72 635.486 502.212 519.591 1204.21 1269.12 1000.87 691.087 710.512 620.245 571.306 896.076 933.289 821.168 395.926 168.44 133.261 527.775 614.575 703.738 282.983 </DataArray>
<DataArray type="Float32" Name="E_field" format="ascii">
0 0 0 0 0 0 0 0 0 0 0 0 0 0 0 0 0 0 0 0 0 0 0 0 0 0 0 0 0 0 0 0 0 0 0 0 0 0 0 0 0 0 0 0 0 0 0 0 0 0 0 0 0 0 0 0 0 0 0 0 0 0 0 0 0 0 0 0 0 0 0 0 0 0 0 0 0 0 0 0 0 0 0 0 0 0 0 0 0 0 0 0 0 0 0 0 0 0 0 0 0 0 0 0 0 0 0 0 0 0 0 0 0 0 0 0 0 0 0 0 0 0 0 0 0 0 0 0 0 0 0 0 0 0 0 0 0 0 0 0 0 0 0 0 0 0 0 0 0 0 0 0 0 0 0 0 0 0 0 0 0 0 0 0 0 0 0 0 0 0 0 0 0 0 0 0 0 0 0 0 0 0 0 0 0 0 0 0 0 0 0 0 0 0 0 0 0 0 0 0 0 0 0 0 0 0 0 0 0 0 0 0 0 0 0 0 </DataArray>
</CellData>
<PointData Scalars="number_density">
<DataArray type="Float32" Name="number_density" format="ascii">
1.08e+16 4.32e+15 1.296e+16 6.48e+15 1.08e+16 8.64e+15 1.944e+16 4.32e+15 8.64e+15 5.4e+15 4.32e+15 3.24e+15 3.24e+15 3.24e+15 8.64e+15 1.188e+16 6.48e+15 8.64e+15 9.72e+15 5.4e+15 8.64e+15 1.404e+16 1.08e+16 5.4e+15 4.32e+15 4.32e+15 5.4e+15 8.64e+15 8.64e+15 4.32e+15 7.56e+15 7.56e+15 5.4e+15 7.56e+15 5.4e+15 9.72e+15 1.728e+16 1.944e+16 1.404e+16 1.296e+16 1.404e+16 9.72e+15 6.48e+15 6.48e+15 5.4e+15 3.24e+15 7.56e+15 1.08e+16 6.48e+15 1.08e+15 1.08e+15 5.4e+15 9.72e+15 5.4e+15 4.32e+15 4.32e+15 4.32e+15 5.4e+15 1.08e+16 1.728e+16 3.024e+16 2.376e+16 1.62e+16 6.48e+15 4.32e+15 5.4e+15 9.72e+15 7.56e+15 9.18e+15 5.4e+15 4.32e+15 4.32e+15 5.94e+15 1.08e+16 5.4e+15 4.86e+15 5.4e+15 4.86e+15 5.94e+15 2.7e+15 3.78e+15 5.94e+15 5.4e+15 5.4e+15 4.32e+15 5.4e+15 6.48e+15 4.32e+15 8.1e+15 7.02e+15 1.026e+16 8.64e+15 3.78e+15 8.64e+15 6.48e+15 3.78e+15 5.94e+15 7.56e+15 6.48e+15 5.94e+15 6.48e+15 9.18e+15 9.18e+15 9.18e+15 8.1e+15 1.296e+16 1.62e+16 1.296e+16 9.18e+15 9.18e+15 1.188e+16 1.89e+16 1.728e+16 7.02e+15 7.02e+15 8.1e+15 1.728e+16 1.89e+16 5.4e+15 1.08e+15 2.7e+15 5.4e+15 7.02e+15 3.24e+15 5.4e+14 2.7e+15 3.24e+15 2.7e+15 2.7e+15 5.4e+14 1.62e+15 2.7e+15 4.86e+15 3.78e+15 2.7e+15 2.7e+15 3.78e+15 5.4e+15 4.86e+15 4.32e+15 3.78e+15 3.78e+15 3.78e+15 5.4e+15 8.1e+15 8.1e+15 5.4e+15 5.4e+15 7.02e+15 7.02e+15 8.1e+15 7.02e+15 5.94e+15 1.134e+16 9.18e+15 8.64e+15 1.35e+16 1.35e+16 1.188e+16 1.35e+16 1.458e+16 2.484e+16 2.376e+16 1.026e+16 1.404e+16 2.322e+16 2.7e+16 2.16e+16 1.08e+16 1.674e+16 3.294e+16 3.618e+16 2.106e+16 1.026e+16 1.566e+16 3.078e+16 4.05e+16 2.43e+16 9.72e+15 9.72e+15 1.89e+16 2.322e+16 1.566e+16 1.242e+16 9.72e+15 1.134e+16 1.08e+16 8.64e+15 1.08e+16 9.72e+15 8.1e+15 8.64e+15 8.1e+15 4.86e+15 2.7e+15 2.7e+15 4.86e+15 5.94e+15 3.24e+15 1.08e+15 0 1.08e+15 3.78e+15 2.7e+15 1.08e+15 1.08e+15 3.24e+15 4.32e+15 2.7e+15 1.08e+15 2.16e+15 3.24e+15 5.94e+15 4.86e+15 1.08e+15 1.62e+15 3.78e+15 8.1e+15 8.91e+15 8.91e+15 7.83e+15 5.94e+15 6.48e+15 5.4e+15 6.48e+15 5.67e+15 4.05e+15 5.13e+15 3.78e+15 3.78e+15 4.05e+15 5.67e+15 5.67e+15 2.7e+15 1.62e+15 2.97e+15 4.32e+15 5.67e+15 3.51e+15 8.1e+14 2.16e+15 3.78e+15 6.21e+15 1.053e+16 1.107e+16 1.404e+16 1.269e+16 9.18e+15 7.56e+15 1.026e+16 1.188e+16 1.323e+16 1.134e+16 6.48e+15 6.48e+15 6.48e+15 1.053e+16 9.72e+15 4.32e+15 3.24e+15 5.4e+15 7.02e+15 6.21e+15 2.7e+15 1.08e+15 3.78e+15 4.05e+15 4.32e+15 8.91e+15 1.188e+16 1.944e+16 2.484e+16 1.782e+16 6.75e+15 1.107e+16 1.512e+16 2.16e+16 2.025e+16 5.4e+15 7.29e+15 9.72e+15 1.35e+16 1.404e+16 6.75e+15 7.02e+15 7.83e+15 8.37e+15 7.83e+15 5.4e+15 4.05e+15 4.05e+15 4.59e+15 6.48e+15 9.72e+15 1.566e+16 3.24e+16 4.698e+16 3.186e+16 7.02e+15 1.242e+16 2.646e+16 4.077e+16 3.132e+16 6.21e+15 9.72e+15 1.566e+16 1.998e+16 1.647e+16 9.18e+15 1.08e+16 9.72e+15 8.91e+15 8.64e+15 7.29e+15 7.02e+15 4.86e+15 4.86e+15 6.48e+15 9.99e+15 1.431e+16 3.213e+16 4.482e+16 3.051e+16 9.99e+15 1.242e+16 2.484e+16 4.131e+16 3.105e+16 1.053e+16 1.026e+16 1.323e+16 1.971e+16 1.539e+16 8.91e+15 9.45e+15 9.45e+15 8.37e+15 7.29e+15 6.21e+15 7.83e+15 7.29e+15 5.13e+15 4.86e+15 </DataArray>
<DataArray type="Float32" Name="potential" format="ascii">
0 0 0 0 0 0 0 0 0 0 0 0 0 0 0 0 0 0 0 0 0 0 0 0 0 0 0 0 0 0 0 0 0 0 0 0 0 0 0 0 0 0 0 0 0 0 0 0 0 0 0 0 0 0 0 0 0 0 0 0 0 0 0 0 0 0 0 0 0 0 0 0 0 0 0 0 0 0 0 0 0 0 0 0 0 0 0 0 0 0 0 0 0 0 0 0 0 0 0 0 0 0 0 0 0 0 0 0 0 0 0 0 0 0 0 0 0 0 0 0 0 0 0 0 0 0 0 0 0 0 0 0 0 0 0 0 0 0 0 0 0 0 0 0 0 0 0 0 0 0 0 0 0 0 0 0 0 0 0 0 0 0 0 0 0 0 0 0 0 0 0 0 0 0 0 0 0 0 0 0 0 0 0 0 0 0 0 0 0 0 0 0 0 0 0 0 0 0 0 0 0 0 0 0 0 0 0 0 0 0 0 0 0 0 0 0 0 0 0 0 0 0 0 0 0 0 0 0 0 0 0 0 0 0 0 0 0 0 0 0 0 0 0 0 0 0 0 0 0 0 0 0 0 0 0 0 0 0 0 0 0 0 0 0 0 0 0 0 0 0 0 0 0 0 0 0 0 0 0 0 0 0 0 0 0 0 0 0 0 0 0 0 0 0 0 0 0 0 0 0 0 0 0 0 0 0 0 0 0 0 0 0 0 0 0 0 0 0 0 0 0 0 0 0 0 0 0 0 0 0 0 0 0 0 0 0 0 0 0 0 0 0 0 </DataArray>
<DataArray type="Float32" Name="temperature" format="ascii">