<VTKFile type="UnstructuredGrid" version="0.1" byte_order="LittleEndian">
<UnstructuredGrid>
<Piece NumberOfPoints="343" NumberOfCells="216">
<Points>
<DataArray type="Float32" NumberOfComponents="3" format="ascii">
-0.05 -0.05 -0.05 0.05 -0.05 -0.05 0.05 0.05 -0.05 -0.05 0.05 -0.05 -0.05 -0.05 0.05 0.05 -0.05 0.05 0.05 0.05 0.05 -0.05 0.05 0.05 -0.0333333 -0.05 -0.05 -0.0166667 -0.05 -0.05 0 -0.05 -0.05 0.0166667 -0.05 -0.05 0.0333333 -0.05 -0.05 0.05 -0.0333333 -0.05 0.05 -0.0166667 -0.05 0.05 0 -0.05 0.05 0.0166667 -0.05 0.05 0.0333333 -0.05 0.0333333 0.05 -0.05 0.0166667 0.05 -0.05 0 0.05 -0.05 -0.0166667 0.05 -0.05 -0.0333333 0.05 -0.05 -0.05 0.0333333 -0.05 -0.05 0.0166667 -0.05 -0.05 0 -0.05 -0.05 -0.0166667 -0.05 -0.05 -0.0333333 -0.05 -0.0333333 -0.05 0.05 -0.0166667 -0.05 0.05 0 -0.05 0.05 0.0166667 -0.05 0.05 0.0333333 -0.05 0.05 0.05 -0.0333333 0.05 0.05 -0.0166667 0.05 0.05 0 0.05 0.05 0.0166667 0.05 0.05 0.0333333 0.05 0.0333333 0.05 0.05 0.0166667 0.05 0.05 0 0.05 0.05 -0.0166667 0.05 0.05 -0.0333333 0.05 0.05 -0.05 0.0333333 0.05 -0.05 0.0166667 0.05 -0.05 0 0.05 -0.05 -0.0166667 0.05 -0.05 -0.0333333 0.05 -0.05 -0.05 -0.0333333 -0.05 -0.05 -0.0166667 -0.05 -0.05 0 -0.05 -0.05 0.0166667 -0.05 -0.05 0.0333333 0.05 -0.05 -0.0333333 0.05 -0.05 -0.0166667 0.05 -0.05 0 0.05 -0.05 0.0166667 0.05 -0.05 0.0333333 0.05 0.05 -0.0333333 0.05 0.05 -0.0166667 0.05 0.05 0 0.05 0.05 0.0166667 0.05 0.05 0.0333333 -0.05 0.05 -0.0333333 -0.05 0.05 -0.0166667 -0.05 0.05 0 -0.05 0.05 0.0166667 -0.05 0.05 0.0333333 -0.0333333 0.0333333 -0.05 -0.0333333 0.0166667 -0.05 -0.0333333 -3.55271e-18 -0.05 -0.0333333 -0.0166667 -0.05 -0.0333333 -0.0333333 -0.05 -0.0166667 0.0333333 -0.05 -0.0166667 0.0166667 -0.05 -0.0166667 -7.10543e-18 -0.05 -0.0166667 -0.0166667 -0.05 -0.0166667 -0.0333333 -0.05 1.77636e-18 0.0333333 -0.05 5.32907e-18 0.0166667 -0.05 3.55271e-18 -1.77636e-18 -0.05 7.10543e-18 -0.0166667 -0.05 3.55271e-18 -0.0333333 -0.05 0.0166667 0.0333333 -0.05 0.0166667 0.0166667 -0.05 0.0166667 -7.10543e-18 -0.05 0.0166667 -0.0166667 -0.05 0.0166667 -0.0333333 -0.05 0.0333333 0.0333333 -0.05 0.0333333 0.0166667 -0.05 0.0333333 -1.77636e-18 -0.05 0.0333333 -0.0166667 -0.05 0.0333333 -0.0333333 -0.05 -0.0333333 -0.0333333 0.05 -0.0333333 -0.0166667 0.05 -0.0333333 0 0.05 -0.0333333 0.0166667 0.05 -0.0333333 0.0333333 0.05 -0.0166667 -0.0333333 0.05 -0.0166667 -0.0166667 0.05 -0.0166667 0 0.05 -0.0166667 0.0166667 0.05 -0.0166667 0.0333333 0.05 0 -0.0333333 0.05 0 -0.0166667 0.05 0 0 0.05 0 0.0166667 0.05 0 0.0333333 0.05 0.0166667 -0.0333333 0.05 0.0166667 -0.0166667 0.05 0.0166667 0 0.05 0.0166667 0.0166667 0.05 0.0166667 0.0333333 0.05 0.0333333 -0.0333333 0.05 0.0333333 -0.0166667 0.05 0.0333333 1.77636e-18 0.05 0.0333333 0.0166667 0.05 0.0333333 0.0333333 0.05 -0.0333333 -0.05 -0.0333333 -0.0333333 -0.05 -0.0166667 -0.0333333 -0.05 0 -0.0333333 -0.05 0.0166667 -0.0333333 -0.05 0.0333333 -0.0166667 -0.05 -0.0333333 -0.0166667 -0.05 -0.0166667 -0.0166667 -0.05 0 -0.0166667 -0.05 0.0166667 -0.0166667 -0.05 0.0333333 0 -0.05 -0.0333333 0 -0.05 -0.0166667 0 -0.05 0 0 -0.05 0.0166667 0 -0.05 0.0333333 0.0166667 -0.05 -0.0333333 0.0166667 -0.05 -0.0166667 0.0166667 -0.05 0 0.0166667 -0.05 0.0166667 0.0166667 -0.05 0.0333333 0.0333333 -0.05 -0.0333333 0.0333333 -0.05 -0.0166667 0.0333333 -0.05 1.77636e-18 0.0333333 -0.05 0.0166667 0.0333333 -0.05 0.0333333 0.05 -0.0333333 -0.0333333 0.05 -0.0333333 -0.0166667 0.05 -0.0333333 0 0.05 -0.0333333 0.0166667 0.05 -0.0333333 0.0333333 0.05 -0.0166667 -0.0333333 0.05 -0.0166667 -0.0166667 0.05 -0.0166667 0 0.05 -0.0166667 0.0166667 0.05 -0.0166667 0.0333333 0.05 0 -0.0333333 0.05 0 -0.0166667 0.05 0 0 0.05 0 0.0166667 0.05 0 0.0333333 0.05 0.0166667 -0.0333333 0.05 0.0166667 -0.0166667 0.05 0.0166667 0 0.05 0.0166667 0.0166667 0.05 0.0166667 0.0333333 0.05 0.0333333 -0.0333333 0.05 0.0333333 -0.0166667 0.05 0.0333333 1.77636e-18 0.05 0.0333333 0.0166667 0.05 0.0333333 0.0333333 0.0333333 0.05 -0.0333333 0.0333333 0.05 -0.0166667 0.0333333 0.05 0 0.0333333 0.05 0.0166667 0.0333333 0.05 0.0333333 0.0166667 0.05 -0.0333333 0.0166667 0.05 -0.0166667 0.0166667 0.05 0 0.0166667 0.05 0.0166667 0.0166667 0.05 0.0333333 0 0.05 -0.0333333 0 0.05 -0.0166667 0 0.05 0 0 0.05 0.0166667 0 0.05 0.0333333 -0.0166667 0.05 -0.0333333 -0.0166667 0.05 -0.0166667 -0.0166667 0.05 0 -0.0166667 0.05 0.0166667 -0.0166667 0.05 0.0333333 -0.0333333 0.05 -0.0333333 -0.0333333 0.05 -0.0166667 -0.0333333 0.05 1.77636e-18 -0.0333333 0.05 0.0166667 -0.0333333 0.05 0.0333333 -0.05 0.0333333 -0.0333333 -0.05 0.0333333 -0.0166667 -0.05 0.0333333 0 -0.05 0.0333333 0.0166667 -0.05 0.0333333 0.0333333 -0.05 0.0166667 -0.0333333 -0.05 0.0166667 -0.0166667 -0.05 0.0166667 0 -0.05 0.0166667 0.0166667 -0.05 0.0166667 0.0333333 -0.05 0 -0.0333333 -0.05 0 -0.0166667 -0.05 0 0 -0.05 0 0.0166667 -0.05 0 0.0333333 -0.05 -0.0166667 -0.0333333 -0.05 -0.0166667 -0.0166667 -0.05 -0.0166667 0 -0.05 -0.0166667 0.0166667 -0.05 -0.0166667 0.0333333 -0.05 -0.0333333 -0.0333333 -0.05 -0.0333333 -0.0166667 -0.05 -0.0333333 1.77636e-18 -0.05 -0.0333333 0.0166667 -0.05 -0.0333333 0.0333333 -0.0333333 0.0333333 -0.0333333 -0.0333333 0.0333333 -0.0166667 -0.0333333 0.0333333 4.44089e-19 -0.0333333 0.0333333 0.0166667 -0.0333333 0.0333333 0.0333333 -0.0333333 0.0166667 -0.0333333 -0.0333333 0.0166667 -0.0166667 -0.0333333 0.0166667 -4.44089e-18 -0.0333333 0.0166667 0.0166667 -0.0333333 0.0166667 0.0333333 -0.0333333 -6.66134e-18 -0.0333333 -0.0333333 -9.76996e-18 -0.0166667 -0.0333333 -1.77636e-18 -1.77636e-18 -0.0333333 -1.77636e-18 0.0166667 -0.0333333 3.55271e-18 0.0333333 -0.0333333 -0.0166667 -0.0333333 -0.0333333 -0.0166667 -0.0166667 -0.0333333 -0.0166667 1.77636e-18 -0.0333333 -0.0166667 0.0166667 -0.0333333 -0.0166667 0.0333333 -0.0333333 -0.0333333 -0.0333333 -0.0333333 -0.0333333 -0.0166667 -0.0333333 -0.0333333 0 -0.0333333 -0.0333333 0.0166667 -0.0333333 -0.0333333 0.0333333 -0.0166667 0.0333333 -0.0333333 -0.0166667 0.0333333 -0.0166667 -0.0166667 0.0333333 2.66454e-18 -0.0166667 0.0333333 0.0166667 -0.0166667 0.0333333 0.0333333 -0.0166667 0.0166667 -0.0333333 -0.0166667 0.0166667 -0.0166667 -0.0166667 0.0166667 -1.77636e-18 -0.0166667 0.0166667 0.0166667 -0.0166667 0.0166667 0.0333333 -0.0166667 -1.06581e-17 -0.0333333 -0.0166667 -1.15463e-17 -0.0166667 -0.0166667 -3.55271e-18 0 -0.0166667 -8.88178e-18 0.0166667 -0.0166667 -1.77636e-18 0.0333333 -0.0166667 -0.0166667 -0.0333333 -0.0166667 -0.0166667 -0.0166667 -0.0166667 -0.0166667 3.55271e-18 -0.0166667 -0.0166667 0.0166667 -0.0166667 -0.0166667 0.0333333 -0.0166667 -0.0333333 -0.0333333 -0.0166667 -0.0333333 -0.0166667 -0.0166667 -0.0333333 0 -0.0166667 -0.0333333 0.0166667 -0.0166667 -0.0333333 0.0333333 3.44169e-18 0.0333333 -0.0333333 1.02141e-17 0.0333333 -0.0166667 2.66454e-18 0.0333333 -8.88178e-19 6.21725e-18 0.0333333 0.0166667 1.33227e-18 0.0333333 0.0333333 7.99361e-18 0.0166667 -0.0333333 8.43769e-18 0.0166667 -0.0166667 8.88178e-19 0.0166667 8.88178e-19 7.99361e-18 0.0166667 0.0166667 3.55271e-18 0.0166667 0.0333333 3.55271e-18 -1.77636e-18 -0.0333333 9.76996e-18 -9.76996e-18 -0.0166667 0 -8.88178e-19 -8.88178e-19 8.88178e-18 -8.88178e-18 0.0166667 1.77636e-18 -1.77636e-18 0.0333333 1.02141e-17 -0.0166667 -0.0333333 1.24345e-17 -0.0166667 -0.0166667 3.55271e-18 -0.0166667 -1.77636e-18 8.88178e-18 -0.0166667 0.0166667 3.55271e-18 -0.0166667 0.0333333 5.77316e-18 -0.0333333 -0.0333333 4.44089e-18 -0.0333333 -0.0166667 1.77636e-18 -0.0333333 1.77636e-18 5.32907e-18 -0.0333333 0.0166667 0 -0.0333333 0.0333333 0.0166667 0.0333333 -0.0333333 0.0166667 0.0333333 -0.0166667 0.0166667 0.0333333 -2.66454e-18 0.0166667 0.0333333 0.0166667 0.0166667 0.0333333 0.0333333 0.0166667 0.0166667 -0.0333333 0.0166667 0.0166667 -0.0166667 0.0166667 0.0166667 3.10862e-18 0.0166667 0.0166667 0.0166667 0.0166667 0.0166667 0.0333333 0.0166667 -1.24345e-17 -0.0333333 0.0166667 -1.37668e-17 -0.0166667 0.0166667 -3.55271e-18 -1.77636e-18 0.0166667 -6.21725e-18 0.0166667 0.0166667 -8.88178e-19 0.0333333 0.0166667 -0.0166667 -0.0333333 0.0166667 -0.0166667 -0.0166667 0.0166667 -0.0166667 2.66454e-18 0.0166667 -0.0166667 0.0166667 0.0166667 -0.0166667 0.0333333 0.0166667 -0.0333333 -0.0333333 0.0166667 -0.0333333 -0.0166667 0.0166667 -0.0333333 0 0.0166667 -0.0333333 0.0166667 0.0166667 -0.0333333 0.0333333 0.0333333 0.0333333 -0.0333333 0.0333333 0.0333333 -0.0166667 0.0333333 0.0333333 3.33067e-19 0.0333333 0.0333333 0.0166667 0.0333333 0.0333333 0.0333333 0.0333333 0.0166667 -0.0333333 0.0333333 0.0166667 -0.0166667 0.0333333 0.0166667 1.11022e-18 0.0333333 0.0166667 0.0166667 0.0333333 0.0166667 0.0333333 0.0333333 -4.44089e-18 -0.0333333 0.0333333 -4.21885e-18 -0.0166667 0.0333333 8.88178e-19 8.88178e-19 0.0333333 -1.33227e-18 0.0166667 0.0333333 3.55271e-18 0.0333333 0.0333333 -0.0166667 -0.0333333 0.0333333 -0.0166667 -0.0166667 0.0333333 -0.0166667 2.22045e-18 0.0333333 -0.0166667 0.0166667 0.0333333 -0.0166667 0.0333333 0.0333333 -0.0333333 -0.0333333 0.0333333 -0.0333333 -0.0166667 0.0333333 -0.0333333 2.22045e-18 0.0333333 -0.0333333 0.0166667 0.0333333 -0.0333333 0.0333333 </DataArray>
</Points>
<Cells>
<DataArray type="Int32" Name="connectivity" format="ascii">
68 22 3 23 218 188 63 193 218 188 63 193 219 189 64 194 219 189 64 194 220 190 65 195 220 190 65 195 221 191 66 196 221 191 66 196 222 192 67 197 222 192 67 197 97 42 7 43 69 68 23 24 223 218 193 198 223 218 193 198 224 219 194 199 224 219 194 199 225 220 195 200 225 220 195 200 226 221 196 201 226 221 196 201 227 222 197 202 227 222 197 202 96 97 43 44 70 69 24 25 228 223 198 203 228 223 198 203 229 224 199 204 229 224 199 204 230 225 200 205 230 225 200 205 231 226 201 206 231 226 201 206 232 227 202 207 232 227 202 207 95 96 44 45 71 70 25 26 233 228 203 208 233 228 203 208 234 229 204 209 234 229 204 209 235 230 205 210 235 230 205 210 236 231 206 211 236 231 206 211 237 232 207 212 237 232 207 212 94 95 45 46 72 71 26 27 238 233 208 213 238 233 208 213 239 234 209 214 239 234 209 214 240 235 210 215 240 235 210 215 241 236 211 216 241 236 211 216 242 237 212 217 242 237 212 217 93 94 46 47 8 72 27 0 118 238 213 48 118 238 213 48 119 239 214 49 119 239 214 49 120 240 215 50 120 240 215 50 121 241 216 51 121 241 216 51 122 242 217 52 122 242 217 52 28 93 47 4 73 21 22 68 243 183 188 218 243 183 188 218 244 184 189 219 244 184 189 219 245 185 190 220 245 185 190 220 246 186 191 221 246 186 191 221 247 187 192 222 247 187 192 222 102 41 42 97 74 73 68 69 248 243 218 223 248 243 218 223 249 244 219 224 249 244 219 224 250 245 220 225 250 245 220 225 251 246 221 226 251 246 221 226 252 247 222 227 252 247 222 227 101 102 97 96 75 74 69 70 253 248 223 228 253 248 223 228 254 249 224 229 254 249 224 229 255 250 225 230 255 250 225 230 256 251 226 231 256 251 226 231 257 252 227 232 257 252 227 232 100 101 96 95 76 75 70 71 258 253 228 233 258 253 228 233 259 254 229 234 259 254 229 234 260 255 230 235 260 255 230 235 261 256 231 236 261 256 231 236 262 257 232 237 262 257 232 237 99 100 95 94 77 76 71 72 263 258 233 238 263 258 233 238 264 259 234 239 264 259 234 239 265 260 235 240 265 260 235 240 266 261 236 241 266 261 236 241 267 262 237 242 267 262 237 242 98 99 94 93 9 77 72 8 123 263 238 118 123 263 238 118 124 264 239 119 124 264 239 119 125 265 240 120 125 265 240 120 126 266 241 121 126 266 241 121 127 267 242 122 127 267 242 122 29 98 93 28 78 20 21 73 268 178 183 243 268 178 183 243 269 179 184 244 269 179 184 244 270 180 185 245 270 180 185 245 271 181 186 246 271 181 186 246 272 182 187 247 272 182 187 247 107 40 41 102 79 78 73 74 273 268 243 248 273 268 243 248 274 269 244 249 274 269 244 249 275 270 245 250 275 270 245 250 276 271 246 251 276 271 246 251 277 272 247 252 277 272 247 252 106 107 102 101 80 79 74 75 278 273 248 253 278 273 248 253 279 274 249 254 279 274 249 254 280 275 250 255 280 275 250 255 281 276 251 256 281 276 251 256 282 277 252 257 282 277 252 257 105 106 101 100 81 80 75 76 283 278 253 258 283 278 253 258 284 279 254 259 284 279 254 259 285 280 255 260 285 280 255 260 286 281 256 261 286 281 256 261 287 282 257 262 287 282 257 262 104 105 100 99 82 81 76 77 288 283 258 263 288 283 258 263 289 284 259 264 289 284 259 264 290 285 260 265 290 285 260 265 291 286 261 266 291 286 261 266 292 287 262 267 292 287 262 267 103 104 99 98 10 82 77 9 128 288 263 123 128 288 263 123 129 289 264 124 129 289 264 124 130 290 265 125 130 290 265 125 131 291 266 126 131 291 266 126 132 292 267 127 132 292 267 127 30 103 98 29 83 19 20 78 293 173 178 268 293 173 178 268 294 174 179 269 294 174 179 269 295 175 180 270 295 175 180 270 296 176 181 271 296 176 181 271 297 177 182 272 297 177 182 272 112 39 40 107 84 83 78 79 298 293 268 273 298 293 268 273 299 294 269 274 299 294 269 274 300 295 270 275 300 295 270 275 301 296 271 276 301 296 271 276 302 297 272 277 302 297 272 277 111 112 107 106 85 84 79 80 303 298 273 278 303 298 273 278 304 299 274 279 304 299 274 279 305 300 275 280 305 300 275 280 306 301 276 281 306 301 276 281 307 302 277 282 307 302 277 282 110 111 106 105 86 85 80 81 308 303 278 283 308 303 278 283 309 304 279 284 309 304 279 284 310 305 280 285 310 305 280 285 311 306 281 286 311 306 281 286 312 307 282 287 312 307 282 287 109 110 105 104 87 86 81 82 313 308 283 288 313 308 283 288 314 309 284 289 314 309 284 289 315 310 285 290 315 310 285 290 316 311 286 291 316 311 286 291 317 312 287 292 317 312 287 292 108 109 104 103 11 87 82 10 133 313 288 128 133 313 288 128 134 314 289 129 134 314 289 129 135 315 290 130 135 315 290 130 136 316 291 131 136 316 291 131 137 317 292 132 137 317 292 132 31 108 103 30 88 18 19 83 318 168 173 293 318 168 173 293 319 169 174 294 319 169 174 294 320 170 175 295 320 170 175 295 321 171 176 296 321 171 176 296 322 172 177 297 322 172 177 297 117 38 39 112 89 88 83 84 323 318 293 298 323 318 293 298 324 319 294 299 324 319 294 299 325 320 295 300 325 320 295 300 326 321 296 301 326 321 296 301 327 322 297 302 327 322 297 302 116 117 112 111 90 89 84 85 328 323 298 303 328 323 298 303 329 324 299 304 329 324 299 304 330 325 300 305 330 325 300 305 331 326 301 306 331 326 301 306 332 327 302 307 332 327 302 307 115 116 111 110 91 90 85 86 333 328 303 308 333 328 303 308 334 329 304 309 334 329 304 309 335 330 305 310 335 330 305 310 336 331 306 311 336 331 306 311 337 332 307 312 337 332 307 312 114 115 110 109 92 91 86 87 338 333 308 313 338 333 308 313 339 334 309 314 339 334 309 314 340 335 310 315 340 335 310 315 341 336 311 316 341 336 311 316 342 337 312 317 342 337 312 317 113 114 109 108 12 92 87 11 138 338 313 133 138 338 313 133 139 339 314 134 139 339 314 134 140 340 315 135 140 340 315 135 141 341 316 136 141 341 316 136 142 342 317 137 142 342 317 137 32 113 108 31 17 2 18 88 163 58 168 318 163 58 168 318 164 59 169 319 164 59 169 319 165 60 170 320 165 60 170 320 166 61 171 321 166 61 171 321 167 62 172 322 167 62 172 322 37 6 38 117 16 17 88 89 158 163 318 323 158 163 318 323 159 164 319 324 159 164 319 324 160 165 320 325 160 165 320 325 161 166 321 326 161 166 321 326 162 167 322 327 162 167 322 327 36 37 117 116 15 16 89 90 153 158 323 328 153 158 323 328 154 159 324 329 154 159 324 329 155 160 325 330 155 160 325 330 156 161 326 331 156 161 326 331 157 162 327 332 157 162 327 332 35 36 116 115 14 15 90 91 148 153 328 333 148 153 328 333 149 154 329 334 149 154 329 334 150 155 330 335 150 155 330 335 151 156 331 336 151 156 331 336 152 157 332 337 152 157 332 337 34 35 115 114 13 14 91 92 143 148 333 338 143 148 333 338 144 149 334 339 144 149 334 339 145 150 335 340 145 150 335 340 146 151 336 341 146 151 336 341 147 152 337 342 147 152 337 342 33 34 114 113 1 13 92 12 53 143 338 138 53 143 338 138 54 144 339 139 54 144 339 139 55 145 340 140 55 145 340 140 56 146 341 141 56 146 341 141 57 147 342 142 57 147 342 142 5 33 113 32 </DataArray>
<DataArray type="Int32" Name="offsets" format="ascii">
8 16 24 32 40 48 56 64 72 80 88 96 104 112 120 128 136 144 152 160 168 176 184 192 200 208 216 224 232 240 248 256 264 272 280 288 296 304 312 320 328 336 344 352 360 368 376 384 392 400 408 416 424 432 440 448 456 464 472 480 488 496 504 512 520 528 536 544 552 560 568 576 584 592 600 608 616 624 632 640 648 656 664 672 680 688 696 704 712 720 728 736 744 752 760 768 776 784 792 800 808 816 824 832 840 848 856 864 872 880 888 896 904 912 920 928 936 944 952 960 968 976 984 992 1000 1008 1016 1024 1032 1040 1048 1056 1064 1072 1080 1088 1096 1104 1112 1120 1128 1136 1144 1152 1160 1168 1176 1184 1192 1200 1208 1216 1224 1232 1240 1248 1256 1264 1272 1280 1288 1296 1304 1312 1320 1328 1336 1344 1352 1360 1368 1376 1384 1392 1400 1408 1416 1424 1432 1440 1448 1456 1464 1472 1480 1488 1496 1504 1512 1520 1528 1536 1544 1552 1560 1568 1576 1584 1592 1600 1608 1616 1624 1632 1640 1648 1656 1664 1672 1680 1688 1696 1704 1712 1720 1728 </DataArray>
<DataArray type="UInt8" Name="types" format="ascii">
12 12 12 12 12 12 12 12 12 12 12 12 12 12 12 12 12 12 12 12 12 12 12 12 12 12 12 12 12 12 12 12 12 12 12 12 12 12 12 12 12 12 12 12 12 12 12 12 12 12 12 12 12 12 12 12 12 12 12 12 12 12 12 12 12 12 12 12 12 12 12 12 12 12 12 12 12 12 12 12 12 12 12 12 12 12 12 12 12 12 12 12 12 12 12 12 12 12 12 12 12 12 12 12 12 12 12 12 12 12 12 12 12 12 12 12 12 12 12 12 12 12 12 12 12 12 12 12 12 12 12 12 12 12 12 12 12 12 12 12 12 12 12 12 12 12 12 12 12 12 12 12 12 12 12 12 12 12 12 12 12 12 12 12 12 12 12 12 12 12 12 12 12 12 12 12 12 12 12 12 12 12 12 12 12 12 12 12 12 12 12 12 12 12 12 12 12 12 12 12 12 12 12 12 12 12 12 12 12 12 12 12 12 12 12 12 </DataArray>
</Cells>
<CellData Scalars="scalars">
<DataArray type="Float32" Name="number_density" format="ascii">
1.08e+16 8.64e+15 1.296e+16 1.08e+16 8.64e+15 8.64e+15 1.512e+16 1.728e+16 1.08e+16 6.48e+15 8.64e+15 1.08e+16 1.944e+16 1.296e+16 1.512e+16 1.08e+16 6.48e+15 4.32e+15 1.296e+16 8.64e+15 2.16e+15 2.16e+15 2.376e+16 6.48e+15 6.48e+15 4.32e+15 6.48e+15 1.296e+16 1.08e+16 6.48e+15 1.296e+16 6.48e+15 6.48e+15 1.512e+16 1.296e+16 2.376e+16 1.296e+16 1.08e+16 6.48e+15 8.64e+15 6.48e+15 4.32e+15 1.08e+16 1.512e+16 1.08e+16 6.48e+15 1.296e+16 4.32e+15 8.64e+15 1.296e+16 1.08e+16 1.512e+16 1.728e+16 1.296e+16 1.296e+16 6.48e+15 1.512e+16 1.296e+16 1.512e+16 1.296e+16 1.728e+16 4.32e+15 1.08e+16 6.48e+15 4.32e+15 4.32e+15 1.296e+16 4.32e+15 2.16e+15 8.64e+15 8.64e+15 4.32e+15 1.728e+16 8.64e+15 2.16e+15 6.48e+15 8.64e+15 2.16e+16 8.64e+15 8.64e+15 1.512e+16 6.48e+15 8.64e+15 8.64e+15 1.512e+16 1.08e+16 1.728e+16 1.08e+16 6.48e+15 1.512e+16 1.728e+16 2.16e+15 1.296e+16 1.512e+16 6.48e+15 1.296e+16 1.08e+16 8.64e+15 6.48e+15 1.08e+16 0 6.48e+15 1.512e+16 1.08e+16 4.32e+15 1.944e+16 0 1.728e+16 6.48e+15 8.64e+15 1.296e+16 8.64e+15 1.944e+16 6.48e+15 1.296e+16 8.64e+15 1.296e+16 1.728e+16 1.296e+16 1.08e+16 8.64e+15 6.48e+15 1.08e+16 1.08e+16 8.64e+15 0 6.48e+15 6.48e+15 1.08e+16 6.48e+15 1.512e+16 8.64e+15 1.728e+16 6.48e+15 0 6.48e+15 1.512e+16 8.64e+15 2.16e+15 6.48e+15 1.296e+16 8.64e+15 6.48e+15 1.296e+16 1.512e+16 1.512e+16 8.64e+15 1.728e+16 6.48e+15 1.08e+16 1.296e+16 0 6.48e+15 1.296e+16 6.48e+15 1.728e+16 1.08e+16 6.48e+15 8.64e+15 8.64e+15 1.296e+16 2.16e+15 1.08e+16 1.08e+16 1.08e+16 1.728e+16 8.64e+15 4.32e+15 1.512e+16 1.296e+16 1.512e+16 4.32e+15 6.48e+15 1.944e+16 1.08e+16 6.48e+15 8.64e+15 1.08e+16 2.16e+15 6.48e+15 1.296e+16 6.48e+15 1.944e+16 6.48e+15 4.32e+15 1.296e+16 2.16e+15 1.08e+16 6.48e+15 6.48e+15 1.296e+16 1.296e+16 6.48e+15 1.296e+16 8.64e+15 1.296e+16 1.296e+16 1.296e+16 1.296e+16 6.48e+15 1.08e+16 8.64e+15 6.48e+15 4.32e+15 1.728e+16 8.64e+15 1.512e+16 8.64e+15 1.296e+16 6.48e+15 6.48e+15 6.48e+15 8.64e+15 6.48e+15 1.08e+16 1.296e+16 </DataArray>
<DataArray type="Float32" Name="potential" format="ascii">
0 0 0 0 0 0 0 0 0 0 0 0 0 0 0 0 0 0 0 0 0 0 0 0 0 0 0 0 0 0 0 0 0 0 0 0 0 0 0 0 0 0 0 0 0 0 0 0 0 0 0 0 0 0 0 0 0 0 0 0 0 0 0 0 0 0 0 0 0 0 0 0 0 0 0 0 0 0 0 0 0 0 0 0 0 0 0 0 0 0 0 0 0 0 0 0 0 0 0 0 0 0 0 0 0 0 0 0 0 0 0 0 0 0 0 0 0 0 0 0 0 0 0 0 0 0 0 0 0 0 0 0 0 0 0 0 0 0 0 0 0 0 0 0 0 0 0 0 0 0 0 0 0 0 0 0 0 0 0 0 0 0 0 0 0 0 0 0 0 0 0 0 0 0 0 0 0 0 0 0 0 0 0 0 0 0 0 0 0 0 0 0 0 0 0 0 0 0 0 0 0 0 0 0 0 0 0 0 0 0 0 0 0 0 0 0 </DataArray>
<DataArray type="Float32" Name="temperature" format="ascii">
200.243 245.744 162.743 416.335 239.171 438.292 295.53 340.181 384.644 270.785 237.398 160.054 451.978 241.069 153.277 264.503 149.008 70.5545 299.27 168.743 1e-15 9.93295e-14 256.494 370.866 133.648 16.5592 306.3 346.453 360.4 42.501 199.929 127.179 212.205 248.683 377.198 253.844 176.922 229.488 203.072 175.474 98.6021 310.972 263.474 158.136 409.913 298.141 238.087 295.639 372.294 267.313 180.838 150.78 349.14 194.234 315.366 102.096 271.226 119.203 264.79 189.009 468.772 396.045 407.475 233.562 199.822 253.884 312.691 211.571 1e-15 275.952 286.367 52.6727 292.195 208.349 6.48997e-15 174.615 349.181 249.438 141.064 293.939 287.376 110.451 206.795 247.302 178.326 231.357 390.349 478.03 115.009 262.64 294.702 1.23133e-14 235.848 230.324 409.543 252.588 199.217 51.9302 571.894 279.373 0 52.4734 356.581 302.112 410.52 266.461 0 265.953 145.817 223.532 221.882 209.863 334.712 367.355 405.667 159.857 498.599 277.908 200.094 333.932 128.942 181.08 295.522 372.841 116.3 0 120.86 222.395 117.525 235.614 298.291 124.277 297.532 545.694 0 225.449 123.861 518.838 6.48997e-15 107.489 239.445 194.441 432.946 268.857 225.455 315.687 159.053 184.006 295.462 275.615 379.958 0 338.423 468.638 300.459 242.785 347.707 283.35 333.703 113.554 441.357 1e-15 358.679 109.851 213.793 275.484 357.092 117.521 149.375 216.767 506.772 217.215 918.29 267.175 234.404 236.623 233.21 273.738 1e-15 85.3675 243.925 153.384 268.107 209.215 100.837 227.749 1e-15 203.636 51.2933 144.831 249.131 267.182 235.323 485.493 495.188 230.253 339.894 355.95 200.327 88.3807 211.961 154.182 192.029 138.002 409.982 315.298 234.643 213.912 271.753 143.221 167.267 325.991 260.202 211.967 212.702 195.42 </DataArray>
<DataArray type="Float32" Name="velocity" format="ascii">
69.3151 105.057 56.8964 166.553 160.563 250.812 101.939 191.762 362.559 263.531 378.85 171.087 134.228 98.9418 69.67 304.925 144.13 399.371 66.9833 125.207 315.243 740.708 199.549 462.402 289.282 230.085 252.585 139.519 128.848 241.707 121.71 88.5857 243.814 87.5344 209.806 39.0803 134.065 76.8497 215.881 46.2941 310.955 302.613 139.432 150.68 129.37 176.875 156.99 391.803 191.068 208.39 139.313 201.004 119.108 122.706 150.468 386.004 252.376 210.231 170.81 138.809 205.145 137.987 94.2339 100.075 503.164 230.518 77.3457 424.784 500.729 259.109 102.969 179.149 170.33 240.595 451.11 96.5405 112.063 62.7207 389.087 202.497 138.269 184.732 251.163 247.651 148.006 213.821 215.938 291.135 159.249 118.437 101.292 433.252 96.2712 226.035 263.353 230.665 204.298 62.3427 376.108 178.772 0 139.729 101.573 256.33 228.872 67.9738 0 129.487 303.038 281.448 94.4836 250.436 126.616 353.469 161.881 293.112 143.126 135.222 135.064 209.549 137.193 369.223 357.582 134.384 517.542 0 427.318 370.127 240.927 104.683 140.895 128.57 92.5389 332.152 0 181.595 115.001 276.045 458.601 197.318 132.908 265.323 209.266 182.807 100.812 107.164 365.004 91.8061 187.468 322.565 129.422 0 131.409 86.0968 204.296 183.472 216.716 184.056 23.3074 332.825 151.968 392.505 221.438 189.132 89.3138 211.935 282.016 268.117 102.567 157.652 149.816 44.2011 175.051 137.362 168.626 217.898 157.295 299.817 428.632 371.685 138.889 183.72 133.432 348.861 81.3143 160.992 390.999 150.889 215.728 59.1667 98.2096 305.484 185.52 67.9366 60.6544 153.002 155.504 183.037 162.907 165.401 285.283 158.779 94.2428 512.473 89.4577 148.42 284.868 364.651 222.954 386.601 35.71 368.004 132.352 145.898 190.381 126.457 </DataArray>
<DataArray type="Float32" Name="E_field" format="ascii">
0 0 0 0 0 0 0 0 0 0 0 0 0 0 0 0 0 0 0 0 0 0 0 0 0 0 0 0 0 0 0 0 0 0 0 0 0 0 0 0 0 0 0 0 0 0 0 0 0 0 0 0 0 0 0 0 0 0 0 0 0 0 0 0 0 0 0 0 0 0 0 0 0 0 0 0 0 0 0 0 0 0 0 0 0 0 0 0 0 0 0 0 0 0 0 0 0 0 0 0 0 0 0 0 0 0 0 0 0 0 0 0 0 0 0 0 0 0 0 0 0 0 0 0 0 0 0 0 0 0 0 0 0 0 0 0 0 0 0 0 0 0 0 0 0 0 0 0 0 0 0 0 0 0 0 0 0 0 0 0 0 0 0 0 0 0 0 0 0 0 0 0 0 0 0 0 0 0 0 0 0 0 0 0 0 0 0 0 0 0 0 0 0 0 0 0 0 0 0 0 0 0 0 0 0 0 0 0 0 0 0 0 0 0 0 0 </DataArray>
</CellData>
<PointData Scalars="number_density">
<DataArray type="Float32" Name="number_density" format="ascii">
1.296e+16 6.48e+15 1.296e+16 1.08e+16 2.376e+16 1.296e+16 1.296e+16 8.64e+15 1.296e+16 1.404e+16 8.64e+15 6.48e+15 8.64e+15 1.188e+16 1.512e+16 9.72e+15 4.32e+15 7.56e+15 1.404e+16 1.08e+16 1.188e+16 1.512e+16 1.188e+16 1.296e+16 1.728e+16 1.62e+16 9.72e+15 9.72e+15 1.404e+16 1.08e+16 1.512e+16 9.72e+15 9.72e+15 9.72e+15 5.4e+15 8.64e+15 1.296e+16 1.296e+16 1.188e+16 8.64e+15 1.404e+16 1.296e+16 6.48e+15 9.72e+15 7.56e+15 5.4e+15 6.48e+15 1.512e+16 9.72e+15 6.48e+15 1.08e+16 1.404e+16 1.836e+16 6.48e+15 7.56e+15 7.56e+15 8.64e+15 1.188e+16 9.72e+15 1.296e+16 1.296e+16 5.4e+15 8.64e+15 9.72e+15 1.08e+16 1.188e+16 9.72e+15 8.64e+15 1.242e+16 1.35e+16 1.35e+16 1.242e+16 1.242e+16 1.242e+16 1.08e+16 1.35e+16 1.458e+16 1.404e+16 1.134e+16 1.134e+16 1.188e+16 1.296e+16 1.134e+16 1.188e+16 1.134e+16 9.18e+15 1.242e+16 1.134e+16 1.08e+16 8.1e+15 1.026e+16 1.404e+16 1.242e+16 9.72e+15 7.56e+15 9.18e+15 8.1e+15 7.02e+15 8.1e+15 9.18e+15 1.35e+16 1.026e+16 9.72e+15 1.134e+16 9.18e+15 9.18e+15 8.64e+15 1.188e+16 1.188e+16 1.026e+16 3.78e+15 7.56e+15 1.134e+16 1.134e+16 8.64e+15 5.94e+15 1.134e+16 1.35e+16 9.18e+15 4.86e+15 8.1e+15 1.134e+16 1.242e+16 1.08e+16 5.4e+15 8.64e+15 9.18e+15 7.56e+15 8.64e+15 8.64e+15 1.134e+16 8.64e+15 9.18e+15 6.48e+15 8.64e+15 1.026e+16 7.02e+15 7.02e+15 7.56e+15 7.56e+15 8.64e+15 7.56e+15 8.1e+15 9.72e+15 9.72e+15 9.72e+15 9.72e+15 1.08e+16 1.134e+16 1.026e+16 1.08e+16 9.18e+15 7.56e+15 9.72e+15 9.72e+15 1.026e+16 1.026e+16 9.18e+15 8.1e+15 9.72e+15 8.64e+15 1.134e+16 1.296e+16 8.1e+15 1.08e+16 9.72e+15 7.56e+15 1.08e+16 1.242e+16 1.242e+16 1.296e+16 8.64e+15 8.64e+15 1.134e+16 1.134e+16 1.188e+16 1.296e+16 1.08e+16 1.026e+16 8.1e+15 7.56e+15 1.08e+16 1.404e+16 1.242e+16 7.02e+15 5.94e+15 7.56e+15 1.026e+16 1.08e+16 9.72e+15 9.72e+15 8.64e+15 7.02e+15 1.296e+16 1.242e+16 1.026e+16 8.64e+15 9.18e+15 1.62e+16 1.404e+16 1.08e+16 8.1e+15 7.56e+15 1.35e+16 9.72e+15 7.56e+15 1.08e+16 1.026e+16 8.1e+15 5.4e+15 5.94e+15 1.242e+16 1.188e+16 7.56e+15 5.94e+15 1.026e+16 1.296e+16 1.35e+16 1.269e+16 1.161e+16 9.18e+15 8.64e+15 8.1e+15 1.404e+16 1.323e+16 1.08e+16 1.053e+16 9.72e+15 1.188e+16 1.053e+16 1.053e+16 1.296e+16 1.242e+16 9.18e+15 7.29e+15 8.64e+15 1.107e+16 1.053e+16 8.64e+15 5.67e+15 8.64e+15 9.99e+15 9.45e+15 1.161e+16 9.72e+15 7.83e+15 8.1e+15 9.45e+15 1.134e+16 1.269e+16 1.161e+16 1.053e+16 1.08e+16 1.08e+16 1.107e+16 1.377e+16 1.242e+16 1.242e+16 9.99e+15 8.37e+15 1.134e+16 8.91e+15 7.83e+15 1.053e+16 6.48e+15 8.64e+15 7.29e+15 5.67e+15 9.99e+15 9.72e+15 1.026e+16 1.107e+16 1.215e+16 9.99e+15 1.134e+16 1.269e+16 1.026e+16 8.91e+15 9.18e+15 9.72e+15 1.188e+16 9.99e+15 9.18e+15 9.45e+15 6.75e+15 8.64e+15 9.45e+15 9.18e+15 9.72e+15 7.02e+15 8.64e+15 8.37e+15 8.37e+15 9.99e+15 9.18e+15 1.215e+16 1.269e+16 1.134e+16 8.37e+15 7.56e+15 1.107e+16 1.134e+16 8.91e+15 8.37e+15 8.91e+15 1.053e+16 1.107e+16 7.56e+15 1.08e+16 9.18e+15 8.91e+15 9.99e+15 1.08e+16 9.72e+15 8.64e+15 8.37e+15 7.56e+15 9.72e+15 9.45e+15 9.18e+15 1.053e+16 9.18e+15 1.053e+16 7.83e+15 7.56e+15 8.91e+15 1.08e+16 1.134e+16 9.72e+15 9.45e+15 1.08e+16 1.107e+16 8.1e+15 1.188e+16 1.134e+16 1.134e+16 9.18e+15 8.64e+15 1.053e+16 1.026e+16 9.72e+15 7.83e+15 9.72e+15 </DataArray>
<DataArray type="Float32" Name="potential" format="ascii">
0 0 0 0 0 0 0 0 0 0 0 0 0 0 0 0 0 0 0 0 0 0 0 0 0 0 0 0 0 0 0 0 0 0 0 0 0 0 0 0 0 0 0 0 0 0 0 0 0 0 0 0 0 0 0 0 0 0 0 0 0 0 0 0 0 0 0 0 0 0 0 0 0 0 0 0 0 0 0 0 0 0 0 0 0 0 0 0 0 0 0 0 0 0 0 0 0 0 0 0 0 0 0 0 0 0 0 0 0 0 0 0 0 0 0 0 0 0 0 0 0 0 0 0 0 0 0 0 0 0 0 0 0 0 0 0 0 0 0 0 0 0 0 0 0 0 0 0 0 0 0 0 0 0 0 0 0 0 0 0 0 0 0 0 0 0 0 0 0 0 0 0 0 0 0 0 0 0 0 0 0 0 0 0 0 0 0 0 0 0 0 0 0 0 0 0 0 0 0 0 0 0 0 0 0 0 0 0 0 0 0 0 0 0 0 0 0 0 0 0 0 0 0 0 0 0 0 0 0 0 0 0 0 0 0 0 0 0 0 0 0 0 0 0 0 0 0 0 0 0 0 0 0 0 0 0 0 0 0 0 0 0 0 0 0 0 0 0 0 0 0 0 0 0 0 0 0 0 0 0 0 0 0 0 0 0 0 0 0 0 0 0 0 0 0 0 0 0 0 0 0 0 0 0 0 0 0 0 0 0 0 0 0 0 0 0 0 0 0 0 0 0 0 0 0 0 0 0 0 0 0 0 0 0 0 0 0 0 0 0 0 0 0 </DataArray>
<DataArray type="Float32" Name="temperature" format="ascii">