<VTKFile type="UnstructuredGrid" version="0.1" byte_order="LittleEndian">
<UnstructuredGrid>
<Piece NumberOfPoints="125" NumberOfCells="64">
<Points>
<DataArray type="Float32" NumberOfComponents="3" format="ascii">
-0.5 -0.5 -0.5 0.5 -0.5 -0.5 0.5 0.5 -0.5 -0.5 0.5 -0.5 -0.5 -0.5 0.5 0.5 -0.5 0.5 0.5 0.5 0.5 -0.5 0.5 0.5 -0.25 -0.5 -0.5 0 -0.5 -0.5 0.25 -0.5 -0.5 0.5 -0.25 -0.5 0.5 0 -0.5 0.5 0.25 -0.5 0.25 0.5 -0.5 0 0.5 -0.5 -0.25 0.5 -0.5 -0.5 0.25 -0.5 -0.5 0 -0.5 -0.5 -0.25 -0.5 -0.25 -0.5 0.5 0 -0.5 0.5 0.25 -0.5 0.5 0.5 -0.25 0.5 0.5 0 0.5 0.5 0.25 0.5 0.25 0.5 0.5 0 0.5 0.5 -0.25 0.5 0.5 -0.5 0.25 0.5 -0.5 0 0.5 -0.5 -0.25 0.5 -0.5 -0.5 -0.25 -0.5 -0.5 0 -0.5 -0.5 0.25 0.5 -0.5 -0.25 0.5 -0.5 0 0.5 -0.5 0.25 0.5 0.5 -0.25 0.5 0.5 0 0.5 0.5 0.25 -0.5 0.5 -0.25 -0.5 0.5 0 -0.5 0.5 0.25 -0.25 0.25 -0.5 -0.25 0 -0.5 -0.25 -0.25 -0.5 0 0.25 -0.5 0 0 -0.5 0 -0.25 -0.5 0.25 0.25 -0.5 0.25 0 -0.5 0.25 -0.25 -0.5 -0.25 -0.25 0.5 -0.25 0 0.5 -0.25 0.25 0.5 0 -0.25 0.5 0 0 0.5 0 0.25 0.5 0.25 -0.25 0.5 0.25 0 0.5 0.25 0.25 0.5 -0.25 -0.5 -0.25 -0.25 -0.5 0 -0.25 -0.5 0.25 0 -0.5 -0.25 0 -0.5 0 0 -0.5 0.25 0.25 -0.5 -0.25 0.25 -0.5 0 0.25 -0.5 0.25 0.5 -0.25 -0.25 0.5 -0.25 0 0.5 -0.25 0.25 0.5 0 -0.25 0.5 0 0 0.5 0 0.25 0.5 0.25 -0.25 0.5 0.25 0 0.5 0.25 0.25 0.25 0.5 -0.25 0.25 0.5 0 0.25 0.5 0.25 0 0.5 -0.25 0 0.5 0 0 0.5 0.25 -0.25 0.5 -0.25 -0.25 0.5 0 -0.25 0.5 0.25 -0.5 0.25 -0.25 -0.5 0.25 0 -0.5 0.25 0.25 -0.5 0 -0.25 -0.5 0 0 -0.5 0 0.25 -0.5 -0.25 -0.25 -0.5 -0.25 0 -0.5 -0.25 0.25 -0.25 0.25 -0.25 -0.25 0.25 0 -0.25 0.25 0.25 -0.25 0 -0.25 -0.25 0 0 -0.25 0 0.25 -0.25 -0.25 -0.25 -0.25 -0.25 0 -0.25 -0.25 0.25 0 0.25 -0.25 0 0.25 0 0 0.25 0.25 0 0 -0.25 0 0 0 0 0 0.25 0 -0.25 -0.25 0 -0.25 0 0 -0.25 0.25 0.25 0.25 -0.25 0.25 0.25 0 0.25 0.25 0.25 0.25 0 -0.25 0.25 0 0 0.25 0 0.25 0.25 -0.25 -0.25 0.25 -0.25 0 0.25 -0.25 0.25 </DataArray>
</Points>
<Cells>
<DataArray type="Int32" Name="connectivity" format="ascii">
44 16 3 17 98 86 41 89 98 86 41 89 99 87 42 90 99 87 42 90 100 88 43 91 100 88 43 91 55 28 7 29 45 44 17 18 101 98 89 92 101 98 89 92 102 99 90 93 102 99 90 93 103 100 91 94 103 100 91 94 54 55 29 30 46 45 18 19 104 101 92 95 104 101 92 95 105 102 93 96 105 102 93 96 106 103 94 97 106 103 94 97 53 54 30 31 8 46 19 0 62 104 95 32 62 104 95 32 63 105 96 33 63 105 96 33 64 106 97 34 64 106 97 34 20 53 31 4 47 15 16 44 107 83 86 98 107 83 86 98 108 84 87 99 108 84 87 99 109 85 88 100 109 85 88 100 58 27 28 55 48 47 44 45 110 107 98 101 110 107 98 101 111 108 99 102 111 108 99 102 112 109 100 103 112 109 100 103 57 58 55 54 49 48 45 46 113 110 101 104 113 110 101 104 114 111 102 105 114 111 102 105 115 112 103 106 115 112 103 106 56 57 54 53 9 49 46 8 65 113 104 62 65 113 104 62 66 114 105 63 66 114 105 63 67 115 106 64 67 115 106 64 21 56 53 20 50 14 15 47 116 80 83 107 116 80 83 107 117 81 84 108 117 81 84 108 118 82 85 109 118 82 85 109 61 26 27 58 51 50 47 48 119 116 107 110 119 116 107 110 120 117 108 111 120 117 108 111 121 118 109 112 121 118 109 112 60 61 58 57 52 51 48 49 122 119 110 113 122 119 110 113 123 120 111 114 123 120 111 114 124 121 112 115 124 121 112 115 59 60 57 56 10 52 49 9 68 122 113 65 68 122 113 65 69 123 114 66 69 123 114 66 70 124 115 67 70 124 115 67 22 59 56 21 13 2 14 50 77 38 80 116 77 38 80 116 78 39 81 117 78 39 81 117 79 40 82 118 79 40 82 118 25 6 26 61 12 13 50 51 74 77 116 119 74 77 116 119 75 78 117 120 75 78 117 120 76 79 118 121 76 79 118 121 24 25 61 60 11 12 51 52 71 74 119 122 71 74 119 122 72 75 120 123 72 75 120 123 73 76 121 124 73 76 121 124 23 24 60 59 1 11 52 10 35 71 122 68 35 71 122 68 36 72 123 69 36 72 123 69 37 73 124 70 37 73 124 70 5 23 59 22 </DataArray>
<DataArray type="Int32" Name="offsets" format="ascii">
8 16 24 32 40 48 56 64 72 80 88 96 104 112 120 128 136 144 152 160 168 176 184 192 200 208 216 224 232 240 248 256 264 272 280 288 296 304 312 320 328 336 344 352 360 368 376 384 392 400 408 416 424 432 440 448 456 464 472 480 488 496 504 512 </DataArray>
<DataArray type="UInt8" Name="types" format="ascii">
12 12 12 12 12 12 12 12 12 12 12 12 12 12 12 12 12 12 12 12 12 12 12 12 12 12 12 12 12 12 12 12 12 12 12 12 12 12 12 12 12 12 12 12 12 12 12 12 12 12 12 12 12 12 12 12 12 12 12 12 12 12 12 12 </DataArray>
</Cells>
<CellData Scalars="scalars">
<DataArray type="Float32" Name="number_density" format="ascii">
6.144e+12 6.3616e+12 5.0496e+12 3.9296e+12 6.144e+12 8.0384e+12 6.5152e+12 4.7616e+12 5.0432e+12 7.3728e+12 6.9952e+12 4.7616e+12 4.5184e+12 5.1968e+12 5.4976e+12 4.8256e+12 8.0576e+12 1.27296e+13 9.248e+12 5.0816e+12 9.1264e+12 3.2576e+13 2.74048e+13 7.488e+12 7.904e+12 2.44288e+13 2.70336e+13 8.6208e+12 5.2352e+12 8.4288e+12 9.1328e+12 6.2592e+12 7.3728e+12 1.1552e+13 1.0176e+13 6.2656e+12 9.4784e+12 3.36832e+13 3.37792e+13 1.00608e+13 9.0944e+12 2.82752e+13 3.20448e+13 1.06176e+13 5.2672e+12 8.2176e+12 9.5296e+12 6.5472e+12 5.3056e+12 6.2592e+12 6.72e+12 5.408e+12 6.1696e+12 8.6976e+12 8.736e+12 6.2272e+12 5.8496e+12 9.2544e+12 9.8624e+12 6.9952e+12 4.8768e+12 6.2208e+12 5.9264e+12 5.6192e+12 </DataArray>
<DataArray type="Float32" Name="potential" format="ascii">
0 0 0 0 0 0 0 0 0 0 0 0 0 0 0 0 0 0 0 0 0 0 0 0 0 0 0 0 0 0 0 0 0 0 0 0 0 0 0 0 0 0 0 0 0 0 0 0 0 0 0 0 0 0 0 0 0 0 0 0 0 0 0 0 </DataArray>
<DataArray type="Float32" Name="temperature" format="ascii">
627.67 779.178 709.548 540.816 749.73 1155.05 1035.08 716.289 665.501 1035.08 1127.21 757.244 564.42 732.158 776.663 576.283 819.26 1208.42 1081.97 738.711 1139.25 2021.41 1941.38 1037.52 963.914 1791.65 1869.06 1180.96 687.177 1003.15 1094.55 749.651 750.848 1155.21 1183.11 782.025 1118.86 2077.9 2088.45 1162.04 988.966 1853.46 2018.58 1205.58 719.334 1143.25 1177.58 784.451 586.109 719.095 749.735 561.943 708.787 1021.63 1110.76 757.186 751.44 1001.36 1112.98 782.971 575.72 732.719 764.024 561.456 </DataArray>
<DataArray type="Float32" Name="velocity" format="ascii">
431.788 617.019 830.429 704.541 659.875 878.878 1105.54 935.417 826.358 1009.58 1059.42 850.098 636.878 824.702 808.099 607.126 520.15 613.039 909.845 834.149 761.983 669.987 942.183 1068.19 1016.24 1014.91 1002.74 970.103 834.131 993.615 941.204 763.084 576.036 656.686 726.15 696.087 751.908 469.857 538.843 822.184 879.982 797.001 673.298 758.58 725.844 869.326 782.077 641.937 515.966 684.864 670.555 523.948 655.251 830.745 785.203 651.42 685.918 847.212 797.106 639.774 513.843 685.897 633.844 511.499 </DataArray>
<DataArray type="Float32" Name="E_field" format="ascii">
0 0 0 0 0 0 0 0 0 0 0 0 0 0 0 0 0 0 0 0 0 0 0 0 0 0 0 0 0 0 0 0 0 0 0 0 0 0 0 0 0 0 0 0 0 0 0 0 0 0 0 0 0 0 0 0 0 0 0 0 0 0 0 0 </DataArray>
</CellData>
<PointData Scalars="number_density">
<DataArray type="Float32" Name="number_density" format="ascii">
4.5184e+12 4.8768e+12 5.3056e+12 6.144e+12 4.8256e+12 5.6192e+12 5.408e+12 3.9296e+12 4.8768e+12 5.2512e+12 5.072e+12 5.3632e+12 6.0096e+12 5.7376e+12 6.3392e+12 7.7152e+12 7.1008e+12 6.144e+12 5.5936e+12 4.7808e+12 5.5424e+12 6.4032e+12 6.0832e+12 6.3072e+12 6.6112e+12 5.8176e+12 5.8368e+12 5.6736e+12 4.5056e+12 4.3456e+12 4.7616e+12 4.7936e+12 4.8576e+12 5.3472e+12 5.1616e+12 5.5488e+12 6.0736e+12 5.7728e+12 5.7824e+12 6.4896e+12 6.064e+12 6.2528e+12 5.7056e+12 4.4896e+12 7.368e+12 7.0544e+12 5.6752e+12 8.5088e+12 8.9008e+12 6.8752e+12 7.0816e+12 7.648e+12 6.272e+12 6.1168e+12 6.408e+12 5.3152e+12 8.0112e+12 9.1968e+12 7.224e+12 7.4448e+12 8.4752e+12 6.9904e+12 5.8448e+12 7.064e+12 6.4288e+12 6.7872e+12 8.8272e+12 7.8672e+12 6.1456e+12 7.4736e+12 6.9056e+12 6.5504e+12 7.816e+12 7.1008e+12 7.4928e+12 9.1376e+12 7.9552e+12 6.608e+12 7.6032e+12 6.7728e+12 7.6224e+12 8.6768e+12 7.1424e+12 9.928e+12 1.09264e+13 7.6928e+12 8.3232e+12 8.3472e+12 5.8272e+12 6.672e+12 6.4912e+12 5.064e+12 6.6496e+12 7.2304e+12 5.7584e+12 5.5328e+12 6.2656e+12 5.52e+12 1.11472e+13 1.34904e+13 8.6848e+12 1.25792e+13 1.75456e+13 1.16976e+13 8.516e+12 1.17608e+13 9.1408e+12 1.5572e+13 2.13936e+13 1.3688e+13 1.93208e+13 2.99032e+13 1.96312e+13 1.21064e+13 1.83864e+13 1.37232e+13 1.10648e+13 1.49504e+13 1.09216e+13 1.38128e+13 2.05416e+13 1.47904e+13 9.632e+12 1.36664e+13 1.08928e+13 </DataArray>
<DataArray type="Float32" Name="potential" format="ascii">
0 0 0 0 0 0 0 0 0 0 0 0 0 0 0 0 0 0 0 0 0 0 0 0 0 0 0 0 0 0 0 0 0 0 0 0 0 0 0 0 0 0 0 0 0 0 0 0 0 0 0 0 0 0 0 0 0 0 0 0 0 0 0 0 0 0 0 0 0 0 0 0 0 0 0 0 0 0 0 0 0 0 0 0 0 0 0 0 0 0 0 0 0 0 0 0 0 0 0 0 0 0 0 0 0 0 0 0 0 0 0 0 0 0 0 0 0 0 0 0 0 0 0 0 0 </DataArray>
<DataArray type="Float32" Name="temperature" format="ascii">
564.42 575.72 586.109 627.67 576.283 561.456 561.943 540.816 625.798 703.255 647.527 663.58 730.114 647.448 668.479 785.054 723.465 688.7 707.616 614.96 662.967 767.051 672.953 672.213 770.079 659.565 671.984 760.368 639.763 628.552 736.767 666.764 648.289 754.411 676.473 654.219 748.371 662.74 652.602 734.415 655.839 703.424 744.363 625.182 833.977 879.598 720.253 957.054 1052.75 839.848 791.151 892.014 758.865 816.035 923.003 758.333 980.16 1146.52 930.073 833.614 976.943 815.799 746.726 901.631 799.288 888.228 1104.63 951.559 792.756 954.394 821.878 765.309 902.771 805.359 870.805 1061.69 940.976 758.907 900.307 794.907 802.817 951.789 819.203 983.436 1157.18 946.453 858.632 944.778 767.76 827.907 919.713 750.433 901.339 1088.1 908.955 749.289 917.777 809.349 1062.5 1241.5 975.163 1190.2 1496.99 1208.09 930.381 1178.69 1016.45 1286.4 1594.73 1251.9 1494.43 1957.74 1562.95 1143.86 1493.91 1260.05 1017.31 1263.24 1049.41 1190.3 1535.64 1279.82 970.781 1225.49 1050.95 </DataArray>
<DataArray type="Float32" Name="velocity" format="ascii">
636.878 513.843 515.966 431.788 607.126 511.499 523.948 704.541 733.29 740.606 610.404 597.333 639.882 577.29 539.752 488.562 469.738 534.179 724.187 730.007 682.954 647.33 563.621 568.19 605.548 580.75 599.926 710.466 763.559 817.629 857.771 718.934 725.691 769.399 700.253 596.137 623.639 567.851 597.236 639.43 589.919 512.951 683.77 765.404 571.506 782.925 822.146 554.926 739.917 814.308 602.139 693.361 687.616 782.06 901.811 876.006 700.926 744.499 775.747 608.558 639.058 652.079 812.025 832.493 765.168 798.313 766.237 707.997 678.83 670.568 617.779 673.199 689.488 628.21 702.433 687.424 649.128 655.975 676.418 636.689 594.493 616.115 632.181 494.732 540.425 709.079 520.167 677.725 809.242 618.797 789.502 886.376 794.212 869.984 934.425 813.749 849.914 812.285 595.358 718.679 898.093 786.346 780.745 916.34 875.541 865.397 844.699 468.655 383.36 702.912 614.727 296.155 624.846 813.552 694.048 702.91 606.982 551.232 635.104 654.921 482.026 582.546 720.074 656.675 630.9 </DataArray>
<DataArray type="Float32" Name="E_field" format="ascii">
0 0 0 0 0 0 0 0 0 0 0 0 0 0 0 0 0 0 0 0 0 0 0 0 0 0 0 0 0 0 0 0 0 0 0 0 0 0 0 0 0 0 0 0 0 0 0 0 0 0 0 0 0 0 0 0 0 0 0 0 0 0 0 0 0 0 0 0 0 0 0 0 0 0 0 0 0 0 0 0 0 0 0 0 0 0 0 0 0 0 0 0 0 0 0 0 0 0 0 0 0 0 0 0 0 0 0 0 0 0 0 0 0 0 0 0 0 0 0 0 0 0 0 0 0 </DataArray>
</PointData>
</Piece>
</UnstructuredGrid>
</VTKFile>
