<VTKFile type="UnstructuredGrid" version="0.1" byte_order="LittleEndian">
<UnstructuredGrid>
<Piece NumberOfPoints="125" NumberOfCells="64">
<Points>
<DataArray type="Float32" NumberOfComponents="3" format="ascii">
-0.5 -0.5 -0.5 0.5 -0.5 -0.5 0.5 0.5 -0.5 -0.5 0.5 -0.5 -0.5 -0.5 0.5 0.5 -0.5 0.5 0.5 0.5 0.5 -0.5 0.5 0.5 -0.25 -0.5 -0.5 0 -0.5 -0.5 0.25 -0.5 -0.5 0.5 -0.25 -0.5 0.5 0 -0.5 0.5 0.25 -0.5 0.25 0.5 -0.5 0 0.5 -0.5 -0.25 0.5 -0.5 -0.5 0.25 -0.5 -0.5 0 -0.5 -0.5 -0.25 -0.5 -0.25 -0.5 0.5 0 -0.5 0.5 0.25 -0.5 0.5 0.5 -0.25 0.5 0.5 0 0.5 0.5 0.25 0.5 0.25 0.5 0.5 0 0.5 0.5 -0.25 0.5 0.5 -0.5 0.25 0.5 -0.5 0 0.5 -0.5 -0.25 0.5 -0.5 -0.5 -0.25 -0.5 -0.5 0 -0.5 -0.5 0.25 0.5 -0.5 -0.25 0.5 -0.5 0 0.5 -0.5 0.25 0.5 0.5 -0.25 0.5 0.5 0 0.5 0.5 0.25 -0.5 0.5 -0.25 -0.5 0.5 0 -0.5 0.5 0.25 -0.25 0.25 -0.5 -0.25 0 -0.5 -0.25 -0.25 -0.5 0 0.25 -0.5 0 0 -0.5 0 -0.25 -0.5 0.25 0.25 -0.5 0.25 0 -0.5 0.25 -0.25 -0.5 -0.25 -0.25 0.5 -0.25 0 0.5 -0.25 0.25 0.5 0 -0.25 0.5 0 0 0.5 0 0.25 0.5 0.25 -0.25 0.5 0.25 0 0.5 0.25 0.25 0.5 -0.25 -0.5 -0.25 -0.25 -0.5 0 -0.25 -0.5 0.25 0 -0.5 -0.25 0 -0.5 0 0 -0.5 0.25 0.25 -0.5 -0.25 0.25 -0.5 0 0.25 -0.5 0.25 0.5 -0.25 -0.25 0.5 -0.25 0 0.5 -0.25 0.25 0.5 0 -0.25 0.5 0 0 0.5 0 0.25 0.5 0.25 -0.25 0.5 0.25 0 0.5 0.25 0.25 0.25 0.5 -0.25 0.25 0.5 0 0.25 0.5 0.25 0 0.5 -0.25 0 0.5 0 0 0.5 0.25 -0.25 0.5 -0.25 -0.25 0.5 0 -0.25 0.5 0.25 -0.5 0.25 -0.25 -0.5 0.25 0 -0.5 0.25 0.25 -0.5 0 -0.25 -0.5 0 0 -0.5 0 0.25 -0.5 -0.25 -0.25 -0.5 -0.25 0 -0.5 -0.25 0.25 -0.25 0.25 -0.25 -0.25 0.25 0 -0.25 0.25 0.25 -0.25 0 -0.25 -0.25 0 0 -0.25 0 0.25 -0.25 -0.25 -0.25 -0.25 -0.25 0 -0.25 -0.25 0.25 0 0.25 -0.25 0 0.25 0 0 0.25 0.25 0 0 -0.25 0 0 0 0 0 0.25 0 -0.25 -0.25 0 -0.25 0 0 -0.25 0.25 0.25 0.25 -0.25 0.25 0.25 0 0.25 0.25 0.25 0.25 0 -0.25 0.25 0 0 0.25 0 0.25 0.25 -0.25 -0.25 0.25 -0.25 0 0.25 -0.25 0.25 </DataArray>
</Points>
<Cells>
<DataArray type="Int32" Name="connectivity" format="ascii">
44 16 3 17 98 86 41 89 98 86 41 89 99 87 42 90 99 87 42 90 100 88 43 91 100 88 43 91 55 28 7 29 45 44 17 18 101 98 89 92 101 98 89 92 102 99 90 93 102 99 90 93 103 100 91 94 103 100 91 94 54 55 29 30 46 45 18 19 104 101 92 95 104 101 92 95 105 102 93 96 105 102 93 96 106 103 94 97 106 103 94 97 53 54 30 31 8 46 19 0 62 104 95 32 62 104 95 32 63 105 96 33 63 105 96 33 64 106 97 34 64 106 97 34 20 53 31 4 47 15 16 44 107 83 86 98 107 83 86 98 108 84 87 99 108 84 87 99 109 85 88 100 109 85 88 100 58 27 28 55 48 47 44 45 110 107 98 101 110 107 98 101 111 108 99 102 111 108 99 102 112 109 100 103 112 109 100 103 57 58 55 54 49 48 45 46 113 110 101 104 113 110 101 104 114 111 102 105 114 111 102 105 115 112 103 106 115 112 103 106 56 57 54 53 9 49 46 8 65 113 104 62 65 113 104 62 66 114 105 63 66 114 105 63 67 115 106 64 67 115 106 64 21 56 53 20 50 14 15 47 116 80 83 107 116 80 83 107 117 81 84 108 117 81 84 108 118 82 85 109 118 82 85 109 61 26 27 58 51 50 47 48 119 116 107 110 119 116 107 110 120 117 108 111 120 117 108 111 121 118 109 112 121 118 109 112 60 61 58 57 52 51 48 49 122 119 110 113 122 119 110 113 123 120 111 114 123 120 111 114 124 121 112 115 124 121 112 115 59 60 57 56 10 52 49 9 68 122 113 65 68 122 113 65 69 123 114 66 69 123 114 66 70 124 115 67 70 124 115 67 22 59 56 21 13 2 14 50 77 38 80 116 77 38 80 116 78 39 81 117 78 39 81 117 79 40 82 118 79 40 82 118 25 6 26 61 12 13 50 51 74 77 116 119 74 77 116 119 75 78 117 120 75 78 117 120 76 79 118 121 76 79 118 121 24 25 61 60 11 12 51 52 71 74 119 122 71 74 119 122 72 75 120 123 72 75 120 123 73 76 121 124 73 76 121 124 23 24 60 59 1 11 52 10 35 71 122 68 35 71 122 68 36 72 123 69 36 72 123 69 37 73 124 70 37 73 124 70 5 23 59 22 </DataArray>
<DataArray type="Int32" Name="offsets" format="ascii">
8 16 24 32 40 48 56 64 72 80 88 96 104 112 120 128 136 144 152 160 168 176 184 192 200 208 216 224 232 240 248 256 264 272 280 288 296 304 312 320 328 336 344 352 360 368 376 384 392 400 408 416 424 432 440 448 456 464 472 480 488 496 504 512 </DataArray>
<DataArray type="UInt8" Name="types" format="ascii">
12 12 12 12 12 12 12 12 12 12 12 12 12 12 12 12 12 12 12 12 12 12 12 12 12 12 12 12 12 12 12 12 12 12 12 12 12 12 12 12 12 12 12 12 12 12 12 12 12 12 12 12 12 12 12 12 12 12 12 12 12 12 12 12 </DataArray>
</Cells>
<CellData Scalars="scalars">
<DataArray type="Float32" Name="number_density" format="ascii">
8.6912e+12 8.9984e+12 8.3776e+12 7.8336e+12 8.9152e+12 9.9008e+12 9.0944e+12 7.9424e+12 8.5888e+12 9.6384e+12 9.4528e+12 8.0896e+12 8.0576e+12 8.48e+12 8.6144e+12 8.2752e+12 9.4784e+12 1.10848e+13 1.0304e+13 8.3968e+12 9.8112e+12 1.5808e+13 1.48928e+13 9.7024e+12 9.5488e+12 1.47136e+13 1.49056e+13 9.8432e+12 8.6016e+12 9.8112e+12 1.0048e+13 8.8576e+12 9.1968e+12 1.06816e+13 1.0336e+13 8.7872e+12 1.01952e+13 1.58784e+13 1.52896e+13 1.06496e+13 1.02464e+13 1.4688e+13 1.54368e+13 1.09376e+13 8.3648e+12 1.01568e+13 1.05792e+13 8.9024e+12 8.3456e+12 8.8192e+12 9.1008e+12 8.64e+12 8.992e+12 9.5936e+12 1.00032e+13 9.1712e+12 8.7104e+12 1.01952e+13 1.03808e+13 9.1264e+12 7.8336e+12 8.7744e+12 8.4544e+12 8.7744e+12 </DataArray>
<DataArray type="Float32" Name="potential" format="ascii">
0 0 0 0 0 0 0 0 0 0 0 0 0 0 0 0 0 0 0 0 0 0 0 0 0 0 0 0 0 0 0 0 0 0 0 0 0 0 0 0 0 0 0 0 0 0 0 0 0 0 0 0 0 0 0 0 0 0 0 0 0 0 0 0 </DataArray>
<DataArray type="Float32" Name="temperature" format="ascii">
679.683 719.41 682.402 653.731 739.488 843.585 809.841 697.248 678.909 832.575 823.953 723.281 626.718 711.336 692.686 655.17 741.741 847.88 818.709 674.993 814.269 1108.4 1066.38 799.927 789.685 1024.52 1039.92 834.631 730.867 803.361 867.188 707.705 694.007 843.96 868.195 710.253 822.146 1074.46 1111.27 831.452 783.398 1060.84 1087.58 832.85 692.896 822.904 840.091 718.206 642.687 668.959 670.78 639.077 674.992 816.452 819.796 731.636 712.894 794.921 818.739 719.154 650.985 711.13 713.929 645.788 </DataArray>
<DataArray type="Float32" Name="velocity" format="ascii">
281.759 426.73 525.73 456.52 422.438 581.714 716.328 587.903 518.856 656.245 686.912 558.713 417.455 529.675 522.166 406.433 323.295 387.151 583.358 543.379 503.01 442.912 621.809 685.283 641.783 646.004 633.145 631.546 520.735 620.198 590.351 473.649 371.529 428.97 493.508 448.402 475.513 374.875 398.542 522.92 557.091 521.963 442.552 504.498 466.021 579.957 532.678 408.144 329.552 432.701 409.663 343.249 433.286 541.925 532.753 427.807 444.179 525.843 509.324 407.806 324.938 445.499 412.734 335.234 </DataArray>
<DataArray type="Float32" Name="E_field" format="ascii">
0 0 0 0 0 0 0 0 0 0 0 0 0 0 0 0 0 0 0 0 0 0 0 0 0 0 0 0 0 0 0 0 0 0 0 0 0 0 0 0 0 0 0 0 0 0 0 0 0 0 0 0 0 0 0 0 0 0 0 0 0 0 0 0 </DataArray>
</CellData>
<PointData Scalars="number_density">
<DataArray type="Float32" Name="number_density" format="ascii">
8.0576e+12 7.8336e+12 8.3456e+12 8.6912e+12 8.2752e+12 8.7744e+12 8.64e+12 7.8336e+12 8.3296e+12 8.4832e+12 8.0992e+12 8.272e+12 8.8512e+12 8.6688e+12 8.7712e+12 9.3376e+12 9.0848e+12 8.8032e+12 8.752e+12 8.3232e+12 8.5664e+12 8.88e+12 8.8384e+12 8.9504e+12 9.1488e+12 8.9056e+12 8.7136e+12 8.592e+12 8.1152e+12 7.888e+12 8.016e+12 8.1824e+12 8.2688e+12 8.5472e+12 8.4448e+12 8.304e+12 8.6144e+12 8.6144e+12 8.5824e+12 8.96e+12 8.8704e+12 8.8448e+12 8.688e+12 8.1056e+12 9.224e+12 9.216e+12 8.6992e+12 9.6704e+12 9.9504e+12 9.1904e+12 9.1824e+12 9.536e+12 8.7888e+12 8.7664e+12 8.8944e+12 8.4688e+12 9.6352e+12 1.02832e+13 9.384e+12 9.4352e+12 9.9712e+12 9.312e+12 8.7376e+12 9.2384e+12 8.9488e+12 9.2336e+12 1.01488e+13 9.5968e+12 8.7824e+12 9.4912e+12 9.1776e+12 8.8784e+12 9.4512e+12 9.184e+12 9.3728e+12 1.00432e+13 9.6704e+12 8.9376e+12 9.3792e+12 9.2288e+12 9.2608e+12 9.7344e+12 9.216e+12 1.01104e+13 1.06016e+13 9.456e+12 9.5632e+12 9.6912e+12 8.728e+12 9.1264e+12 9.0928e+12 8.312e+12 9.2608e+12 9.5216e+12 8.6448e+12 8.6912e+12 9.0464e+12 8.608e+12 1.0336e+13 1.10576e+13 9.568e+12 1.08656e+13 1.23008e+13 1.04904e+13 9.68e+12 1.0708e+13 9.7608e+12 1.15168e+13 1.30344e+13 1.10448e+13 1.26112e+13 1.52016e+13 1.27072e+13 1.07664e+13 1.25424e+13 1.11888e+13 1.02128e+13 1.12128e+13 1.02472e+13 1.10624e+13 1.26832e+13 1.13744e+13 9.8712e+12 1.10832e+13 1.0324e+13 </DataArray>
<DataArray type="Float32" Name="potential" format="ascii">
0 0 0 0 0 0 0 0 0 0 0 0 0 0 0 0 0 0 0 0 0 0 0 0 0 0 0 0 0 0 0 0 0 0 0 0 0 0 0 0 0 0 0 0 0 0 0 0 0 0 0 0 0 0 0 0 0 0 0 0 0 0 0 0 0 0 0 0 0 0 0 0 0 0 0 0 0 0 0 0 0 0 0 0 0 0 0 0 0 0 0 0 0 0 0 0 0 0 0 0 0 0 0 0 0 0 0 0 0 0 0 0 0 0 0 0 0 0 0 0 0 0 0 0 0 </DataArray>
<DataArray type="Float32" Name="temperature" format="ascii">
626.718 650.985 642.687 679.683 655.17 645.788 639.077 653.731 678.793 711.882 671.941 681.94 693.943 658.84 668.347 717.874 710.712 709.586 709.198 652.814 681.437 712.955 681.997 682.471 725.395 685.357 674.665 692.623 664.362 675.49 710.265 689.225 669.027 702.011 673.928 681.057 712.529 679.859 655.823 669.869 654.929 699.547 700.906 668.067 743.795 755.588 706.545 768.041 802.374 749.212 708.458 748.358 710.043 730.197 763.772 706.475 773.348 824.715 754.156 729 778.773 728.105 718.071 768.643 730.687 762.507 833.386 783.297 719.479 772.013 729.504 717.483 759.68 724.403 749.815 812.477 772.331 700.772 743.997 715.322 712.403 762.974 722.077 781.897 844.686 768.038 747.179 767.1 707.459 745.542 763.809 710.806 773.639 827.488 763.581 712.385 765.138 723.772 811.807 862.076 775.404 853.929 943.647 849.397 774.747 849.442 793.066 868.358 967.408 860.148 934.716 1071.67 950.502 838.56 943.301 866.021 779.708 859.234 797.808 842.514 948.008 869.06 778.747 856.268 797.043 </DataArray>
<DataArray type="Float32" Name="velocity" format="ascii">
417.455 324.938 329.552 281.759 406.433 335.234 343.249 456.52 466.649 478.739 386.044 377.83 428.256 373.552 345.425 320.621 295.278 343.283 463.742 465.689 436.357 416.073 363.247 365.129 396.706 380.732 381.936 477.685 493.563 519.398 558.532 475.71 465.001 510.527 453.815 382.269 414.705 369.011 378.202 406.27 368.802 344.251 458.883 488.417 364.611 500.969 516.671 370.713 492.537 521.998 383.584 449.054 429.588 501.737 586.647 556.984 456.327 516.081 514.814 389.613 419.352 411.044 509.264 533.349 480.253 519.854 521.837 459.424 436.514 456.131 401.269 420.715 444.26 400.121 459.392 474.024 433.523 419.154 444.265 409.231 377.137 401.233 400.121 318.748 386.239 482.043 329.248 445.032 514.589 403.6 527.525 562.147 515.652 599.917 609.811 516.694 564.77 523.946 376.798 468.407 568.06 502.022 518.104 590.307 546.137 554.047 529.353 310.546 273.437 471.923 405.085 162.411 418.852 521.63 455.187 446.004 391.6 372.278 404.093 427.72 342.252 387.82 450.773 430.595 401.161 </DataArray>
<DataArray type="Float32" Name="E_field" format="ascii">
0 0 0 0 0 0 0 0 0 0 0 0 0 0 0 0 0 0 0 0 0 0 0 0 0 0 0 0 0 0 0 0 0 0 0 0 0 0 0 0 0 0 0 0 0 0 0 0 0 0 0 0 0 0 0 0 0 0 0 0 0 0 0 0 0 0 0 0 0 0 0 0 0 0 0 0 0 0 0 0 0 0 0 0 0 0 0 0 0 0 0 0 0 0 0 0 0 0 0 0 0 0 0 0 0 0 0 0 0 0 0 0 0 0 0 0 0 0 0 0 0 0 0 0 0 </DataArray>
</PointData>
</Piece>
</UnstructuredGrid>
</VTKFile>
