<VTKFile type="UnstructuredGrid" version="0.1" byte_order="LittleEndian">
<UnstructuredGrid>
<Piece NumberOfPoints="125" NumberOfCells="64">
<Points>
<DataArray type="Float32" NumberOfComponents="3" format="ascii">
-0.5 -0.5 -0.5 0.5 -0.5 -0.5 0.5 0.5 -0.5 -0.5 0.5 -0.5 -0.5 -0.5 0.5 0.5 -0.5 0.5 0.5 0.5 0.5 -0.5 0.5 0.5 -0.25 -0.5 -0.5 0 -0.5 -0.5 0.25 -0.5 -0.5 0.5 -0.25 -0.5 0.5 0 -0.5 0.5 0.25 -0.5 0.25 0.5 -0.5 0 0.5 -0.5 -0.25 0.5 -0.5 -0.5 0.25 -0.5 -0.5 0 -0.5 -0.5 -0.25 -0.5 -0.25 -0.5 0.5 0 -0.5 0.5 0.25 -0.5 0.5 0.5 -0.25 0.5 0.5 0 0.5 0.5 0.25 0.5 0.25 0.5 0.5 0 0.5 0.5 -0.25 0.5 0.5 -0.5 0.25 0.5 -0.5 0 0.5 -0.5 -0.25 0.5 -0.5 -0.5 -0.25 -0.5 -0.5 0 -0.5 -0.5 0.25 0.5 -0.5 -0.25 0.5 -0.5 0 0.5 -0.5 0.25 0.5 0.5 -0.25 0.5 0.5 0 0.5 0.5 0.25 -0.5 0.5 -0.25 -0.5 0.5 0 -0.5 0.5 0.25 -0.25 0.25 -0.5 -0.25 0 -0.5 -0.25 -0.25 -0.5 0 0.25 -0.5 0 0 -0.5 0 -0.25 -0.5 0.25 0.25 -0.5 0.25 0 -0.5 0.25 -0.25 -0.5 -0.25 -0.25 0.5 -0.25 0 0.5 -0.25 0.25 0.5 0 -0.25 0.5 0 0 0.5 0 0.25 0.5 0.25 -0.25 0.5 0.25 0 0.5 0.25 0.25 0.5 -0.25 -0.5 -0.25 -0.25 -0.5 0 -0.25 -0.5 0.25 0 -0.5 -0.25 0 -0.5 0 0 -0.5 0.25 0.25 -0.5 -0.25 0.25 -0.5 0 0.25 -0.5 0.25 0.5 -0.25 -0.25 0.5 -0.25 0 0.5 -0.25 0.25 0.5 0 -0.25 0.5 0 0 0.5 0 0.25 0.5 0.25 -0.25 0.5 0.25 0 0.5 0.25 0.25 0.25 0.5 -0.25 0.25 0.5 0 0.25 0.5 0.25 0 0.5 -0.25 0 0.5 0 0 0.5 0.25 -0.25 0.5 -0.25 -0.25 0.5 0 -0.25 0.5 0.25 -0.5 0.25 -0.25 -0.5 0.25 0 -0.5 0.25 0.25 -0.5 0 -0.25 -0.5 0 0 -0.5 0 0.25 -0.5 -0.25 -0.25 -0.5 -0.25 0 -0.5 -0.25 0.25 -0.25 0.25 -0.25 -0.25 0.25 0 -0.25 0.25 0.25 -0.25 0 -0.25 -0.25 0 0 -0.25 0 0.25 -0.25 -0.25 -0.25 -0.25 -0.25 0 -0.25 -0.25 0.25 0 0.25 -0.25 0 0.25 0 0 0.25 0.25 0 0 -0.25 0 0 0 0 0 0.25 0 -0.25 -0.25 0 -0.25 0 0 -0.25 0.25 0.25 0.25 -0.25 0.25 0.25 0 0.25 0.25 0.25 0.25 0 -0.25 0.25 0 0 0.25 0 0.25 0.25 -0.25 -0.25 0.25 -0.25 0 0.25 -0.25 0.25 </DataArray>
</Points>
<Cells>
<DataArray type="Int32" Name="connectivity" format="ascii">
44 16 3 17 98 86 41 89 98 86 41 89 99 87 42 90 99 87 42 90 100 88 43 91 100 88 43 91 55 28 7 29 45 44 17 18 101 98 89 92 101 98 89 92 102 99 90 93 102 99 90 93 103 100 91 94 103 100 91 94 54 55 29 30 46 45 18 19 104 101 92 95 104 101 92 95 105 102 93 96 105 102 93 96 106 103 94 97 106 103 94 97 53 54 30 31 8 46 19 0 62 104 95 32 62 104 95 32 63 105 96 33 63 105 96 33 64 106 97 34 64 106 97 34 20 53 31 4 47 15 16 44 107 83 86 98 107 83 86 98 108 84 87 99 108 84 87 99 109 85 88 100 109 85 88 100 58 27 28 55 48 47 44 45 110 107 98 101 110 107 98 101 111 108 99 102 111 108 99 102 112 109 100 103 112 109 100 103 57 58 55 54 49 48 45 46 113 110 101 104 113 110 101 104 114 111 102 105 114 111 102 105 115 112 103 106 115 112 103 106 56 57 54 53 9 49 46 8 65 113 104 62 65 113 104 62 66 114 105 63 66 114 105 63 67 115 106 64 67 115 106 64 21 56 53 20 50 14 15 47 116 80 83 107 116 80 83 107 117 81 84 108 117 81 84 108 118 82 85 109 118 82 85 109 61 26 27 58 51 50 47 48 119 116 107 110 119 116 107 110 120 117 108 111 120 117 108 111 121 118 109 112 121 118 109 112 60 61 58 57 52 51 48 49 122 119 110 113 122 119 110 113 123 120 111 114 123 120 111 114 124 121 112 115 124 121 112 115 59 60 57 56 10 52 49 9 68 122 113 65 68 122 113 65 69 123 114 66 69 123 114 66 70 124 115 67 70 124 115 67 22 59 56 21 13 2 14 50 77 38 80 116 77 38 80 116 78 39 81 117 78 39 81 117 79 40 82 118 79 40 82 118 25 6 26 61 12 13 50 51 74 77 116 119 74 77 116 119 75 78 117 120 75 78 117 120 76 79 118 121 76 79 118 121 24 25 61 60 11 12 51 52 71 74 119 122 71 74 119 122 72 75 120 123 72 75 120 123 73 76 121 124 73 76 121 124 23 24 60 59 1 11 52 10 35 71 122 68 35 71 122 68 36 72 123 69 36 72 123 69 37 73 124 70 37 73 124 70 5 23 59 22 </DataArray>
<DataArray type="Int32" Name="offsets" format="ascii">
8 16 24 32 40 48 56 64 72 80 88 96 104 112 120 128 136 144 152 160 168 176 184 192 200 208 216 224 232 240 248 256 264 272 280 288 296 304 312 320 328 336 344 352 360 368 376 384 392 400 408 416 424 432 440 448 456 464 472 480 488 496 504 512 </DataArray>
<DataArray type="UInt8" Name="types" format="ascii">
12 12 12 12 12 12 12 12 12 12 12 12 12 12 12 12 12 12 12 12 12 12 12 12 12 12 12 12 12 12 12 12 12 12 12 12 12 12 12 12 12 12 12 12 12 12 12 12 12 12 12 12 12 12 12 12 12 12 12 12 12 12 12 12 </DataArray>
</Cells>
<CellData Scalars="scalars">
<DataArray type="Float32" Name="number_density" format="ascii">
1.00672e+13 9.7984e+12 9.824e+12 9.8176e+12 9.9584e+12 1.0016e+13 9.7792e+12 9.4656e+12 1.00288e+13 9.7344e+12 9.8816e+12 9.9136e+12 1.01568e+13 9.9008e+12 9.8944e+12 1.00672e+13 9.4336e+12 1.01056e+13 1.01184e+13 1.00992e+13 9.9584e+12 1.05024e+13 1.0208e+13 9.856e+12 9.7792e+12 1.0784e+13 1.0304e+13 9.92e+12 9.824e+12 1.03552e+13 9.8112e+12 9.4912e+12 9.7408e+12 9.9968e+12 1.01952e+13 9.792e+12 1.0112e+13 1.05344e+13 1.024e+13 1.02528e+13 1.02336e+13 1.04384e+13 1.04704e+13 1.0624e+13 9.8304e+12 1.01568e+13 1.0112e+13 9.8944e+12 9.792e+12 1.00032e+13 9.8816e+12 1.00416e+13 1.00992e+13 9.4336e+12 9.8624e+12 1.01824e+13 9.9904e+12 1.02016e+13 1.02144e+13 1.00032e+13 9.1776e+12 9.8368e+12 9.6704e+12 1.01312e+13 </DataArray>
<DataArray type="Float32" Name="potential" format="ascii">
0 0 0 0 0 0 0 0 0 0 0 0 0 0 0 0 0 0 0 0 0 0 0 0 0 0 0 0 0 0 0 0 0 0 0 0 0 0 0 0 0 0 0 0 0 0 0 0 0 0 0 0 0 0 0 0 0 0 0 0 0 0 0 0 </DataArray>
<DataArray type="Float32" Name="temperature" format="ascii">
690.398 697.106 696.762 689.613 694.333 700.726 716.635 676.858 689.74 719.164 696.55 707.031 669.438 681.124 697.09 690.881 675.08 731.071 688.847 681.591 725.411 746.662 727.779 690.227 700.839 732.617 713.546 714.117 713.83 700.905 711.013 687.552 696.648 730.153 719.444 700.621 707.2 730.881 749.364 695.882 719.101 736.727 737.295 708.619 691.447 713.701 708.549 685.016 664.046 677.27 684.039 688.136 693.998 717.238 690.426 710.433 698.118 705.886 733.568 716.956 696.485 695.347 721.455 682.963 </DataArray>
<DataArray type="Float32" Name="velocity" format="ascii">
112.289 172.097 197.722 173.147 147.868 207.881 265.483 211.865 193.786 237.63 262.521 214.07 172.575 203.363 200.035 160.964 123.038 142.448 212.13 214.646 181.985 149.774 216.913 238.616 238.16 213.959 217.23 231.703 192.535 218.439 224.643 174.275 135.645 158.525 194.619 163.594 182.264 131.963 139.448 194.156 206.997 174.86 166.268 177.455 164.851 225.023 200.429 152.527 135.09 145.308 151.885 126.667 157.001 202.392 203.112 169.086 153.686 186.259 185.814 153.654 128.904 159.774 158.368 129.638 </DataArray>
<DataArray type="Float32" Name="E_field" format="ascii">
0 0 0 0 0 0 0 0 0 0 0 0 0 0 0 0 0 0 0 0 0 0 0 0 0 0 0 0 0 0 0 0 0 0 0 0 0 0 0 0 0 0 0 0 0 0 0 0 0 0 0 0 0 0 0 0 0 0 0 0 0 0 0 0 </DataArray>
</CellData>
<PointData Scalars="number_density">
<DataArray type="Float32" Name="number_density" format="ascii">
1.01568e+13 9.1776e+12 9.792e+12 1.00672e+13 1.00672e+13 1.01312e+13 1.00416e+13 9.8176e+12 9.9904e+12 9.8272e+12 9.504e+12 9.584e+12 1.00448e+13 9.9456e+12 9.7664e+12 9.5872e+12 9.7504e+12 1.00128e+13 9.9936e+12 1.00928e+13 9.7792e+12 9.6928e+12 1.00128e+13 1.00672e+13 1.00928e+13 1.0112e+13 9.9168e+12 9.9456e+12 9.9584e+12 9.6416e+12 9.6896e+12 9.9904e+12 1.00288e+13 9.8976e+12 9.9808e+12 9.5072e+12 9.7536e+12 9.9008e+12 9.8976e+12 9.9424e+12 9.9616e+12 9.9328e+12 9.8112e+12 9.8208e+12 9.8544e+12 9.9312e+12 9.9472e+12 9.8112e+12 1.00208e+13 9.9168e+12 9.936e+12 1.01088e+13 9.808e+12 9.848e+12 9.7888e+12 9.8096e+12 9.9824e+12 1.01632e+13 1e+13 1.01632e+13 1.02656e+13 1.00672e+13 1.00592e+13 9.9904e+12 9.816e+12 1.00416e+13 1.01088e+13 9.8272e+12 9.7504e+12 9.944e+12 9.952e+12 9.8016e+12 9.9808e+12 1.00048e+13 9.9312e+12 9.928e+12 1.00656e+13 9.832e+12 9.7952e+12 9.992e+12 9.8832e+12 1.00192e+13 9.9776e+12 9.8192e+12 1.0104e+13 1.00512e+13 9.8512e+12 9.9616e+12 9.9648e+12 9.96e+12 9.8544e+12 9.7216e+12 9.9344e+12 9.8528e+12 9.76e+12 9.9552e+12 9.8528e+12 9.9392e+12 9.98e+12 1.0044e+13 9.896e+12 1.00952e+13 1.01512e+13 9.916e+12 1.00704e+13 1.00832e+13 9.9104e+12 1.0048e+13 1.02376e+13 1.00952e+13 1.02928e+13 1.04352e+13 1.02344e+13 1.01752e+13 1.0304e+13 1.00784e+13 9.964e+12 1.00184e+13 1.0056e+13 1.01304e+13 1.01744e+13 1.02312e+13 9.9832e+12 1.01376e+13 1.014e+13 </DataArray>
<DataArray type="Float32" Name="potential" format="ascii">
0 0 0 0 0 0 0 0 0 0 0 0 0 0 0 0 0 0 0 0 0 0 0 0 0 0 0 0 0 0 0 0 0 0 0 0 0 0 0 0 0 0 0 0 0 0 0 0 0 0 0 0 0 0 0 0 0 0 0 0 0 0 0 0 0 0 0 0 0 0 0 0 0 0 0 0 0 0 0 0 0 0 0 0 0 0 0 0 0 0 0 0 0 0 0 0 0 0 0 0 0 0 0 0 0 0 0 0 0 0 0 0 0 0 0 0 0 0 0 0 0 0 0 0 0 </DataArray>
<DataArray type="Float32" Name="temperature" format="ascii">
669.438 696.485 664.046 690.398 690.881 682.963 688.136 689.613 691.634 702.638 693.966 697.301 696.058 679.022 680.347 685.864 682.739 692.366 692.036 679.589 689.217 686.284 683.99 699.96 713.695 699.284 694.378 691.106 685.602 683.236 691.945 698.956 675.281 689.107 693.986 695.916 708.401 702.209 670.658 680.655 686.088 693.752 696.934 693.188 696.306 702.581 693.462 701.085 713.138 706.304 690.473 704.604 701.288 699.895 697.058 684.572 698.826 702.211 692.08 698.389 707.973 698.768 691.324 697.533 696.634 704.971 708.542 698.033 699.245 709.763 699.496 698.959 714.064 713.736 703.81 711.78 712.846 688.138 692.243 693.259 692.029 702.727 698.06 708.238 717.379 697.626 698.414 703.447 689.203 695.641 702.808 694.967 700.991 708.269 699.269 689.867 698.482 697.888 707.598 713.199 696.039 713.687 719.21 705.343 700.957 706.501 702.222 717.888 728.025 706.72 724.93 734.359 717.104 713.646 719.294 708.213 702.179 712.352 704.793 713.644 725.173 717.818 707.102 719.066 711.803 </DataArray>
<DataArray type="Float32" Name="velocity" format="ascii">
172.575 128.904 135.09 112.289 160.964 129.638 126.667 173.147 180.974 173.954 143.585 137.201 152.803 140.434 133.615 119.156 115.393 126.476 169.265 181.578 164.428 156.87 133.378 136.953 155.377 145.023 138.946 183.165 190.472 191.188 208.775 184.692 181.882 197.136 176.284 142.57 154.946 143.518 138.776 144.687 136.998 138.434 179.028 184.383 133.461 184.14 194.691 139.227 190.431 191.974 140.575 162.851 154.924 188.195 212.977 204.145 169.161 186.778 192.886 143.072 157.906 152.827 189.972 198.589 181.27 190.957 199.345 172.562 161.991 174.601 149.491 150.546 162.615 148.187 166.089 178.127 163.832 153.104 164.689 154.919 137.988 150.578 148.739 118.761 152.16 183.293 127.39 166.891 192.996 148.568 201.396 207.671 183.232 225.683 227.013 193.691 214.563 200.644 134.369 172.133 205.782 176.253 185.141 211.235 197.59 199.916 195.844 112.442 103.428 173.056 148.728 51.4391 149.034 186.269 164.723 164.538 139.967 138.196 149.083 152.345 127.87 143.836 160.464 158.606 146.241 </DataArray>
<DataArray type="Float32" Name="E_field" format="ascii">
0 0 0 0 0 0 0 0 0 0 0 0 0 0 0 0 0 0 0 0 0 0 0 0 0 0 0 0 0 0 0 0 0 0 0 0 0 0 0 0 0 0 0 0 0 0 0 0 0 0 0 0 0 0 0 0 0 0 0 0 0 0 0 0 0 0 0 0 0 0 0 0 0 0 0 0 0 0 0 0 0 0 0 0 0 0 0 0 0 0 0 0 0 0 0 0 0 0 0 0 0 0 0 0 0 0 0 0 0 0 0 0 0 0 0 0 0 0 0 0 0 0 0 0 0 </DataArray>
</PointData>
</Piece>
</UnstructuredGrid>
</VTKFile>
