<VTKFile type="UnstructuredGrid" version="0.1" byte_order="LittleEndian">
<UnstructuredGrid>
<Piece NumberOfPoints="125" NumberOfCells="64">
<Points>
<DataArray type="Float32" NumberOfComponents="3" format="ascii">
-0.5 -0.5 -0.5 0.5 -0.5 -0.5 0.5 0.5 -0.5 -0.5 0.5 -0.5 -0.5 -0.5 0.5 0.5 -0.5 0.5 0.5 0.5 0.5 -0.5 0.5 0.5 -0.25 -0.5 -0.5 0 -0.5 -0.5 0.25 -0.5 -0.5 0.5 -0.25 -0.5 0.5 0 -0.5 0.5 0.25 -0.5 0.25 0.5 -0.5 0 0.5 -0.5 -0.25 0.5 -0.5 -0.5 0.25 -0.5 -0.5 0 -0.5 -0.5 -0.25 -0.5 -0.25 -0.5 0.5 0 -0.5 0.5 0.25 -0.5 0.5 0.5 -0.25 0.5 0.5 0 0.5 0.5 0.25 0.5 0.25 0.5 0.5 0 0.5 0.5 -0.25 0.5 0.5 -0.5 0.25 0.5 -0.5 0 0.5 -0.5 -0.25 0.5 -0.5 -0.5 -0.25 -0.5 -0.5 0 -0.5 -0.5 0.25 0.5 -0.5 -0.25 0.5 -0.5 0 0.5 -0.5 0.25 0.5 0.5 -0.25 0.5 0.5 0 0.5 0.5 0.25 -0.5 0.5 -0.25 -0.5 0.5 0 -0.5 0.5 0.25 -0.25 0.25 -0.5 -0.25 0 -0.5 -0.25 -0.25 -0.5 0 0.25 -0.5 0 0 -0.5 0 -0.25 -0.5 0.25 0.25 -0.5 0.25 0 -0.5 0.25 -0.25 -0.5 -0.25 -0.25 0.5 -0.25 0 0.5 -0.25 0.25 0.5 0 -0.25 0.5 0 0 0.5 0 0.25 0.5 0.25 -0.25 0.5 0.25 0 0.5 0.25 0.25 0.5 -0.25 -0.5 -0.25 -0.25 -0.5 0 -0.25 -0.5 0.25 0 -0.5 -0.25 0 -0.5 0 0 -0.5 0.25 0.25 -0.5 -0.25 0.25 -0.5 0 0.25 -0.5 0.25 0.5 -0.25 -0.25 0.5 -0.25 0 0.5 -0.25 0.25 0.5 0 -0.25 0.5 0 0 0.5 0 0.25 0.5 0.25 -0.25 0.5 0.25 0 0.5 0.25 0.25 0.25 0.5 -0.25 0.25 0.5 0 0.25 0.5 0.25 0 0.5 -0.25 0 0.5 0 0 0.5 0.25 -0.25 0.5 -0.25 -0.25 0.5 0 -0.25 0.5 0.25 -0.5 0.25 -0.25 -0.5 0.25 0 -0.5 0.25 0.25 -0.5 0 -0.25 -0.5 0 0 -0.5 0 0.25 -0.5 -0.25 -0.25 -0.5 -0.25 0 -0.5 -0.25 0.25 -0.25 0.25 -0.25 -0.25 0.25 0 -0.25 0.25 0.25 -0.25 0 -0.25 -0.25 0 0 -0.25 0 0.25 -0.25 -0.25 -0.25 -0.25 -0.25 0 -0.25 -0.25 0.25 0 0.25 -0.25 0 0.25 0 0 0.25 0.25 0 0 -0.25 0 0 0 0 0 0.25 0 -0.25 -0.25 0 -0.25 0 0 -0.25 0.25 0.25 0.25 -0.25 0.25 0.25 0 0.25 0.25 0.25 0.25 0 -0.25 0.25 0 0 0.25 0 0.25 0.25 -0.25 -0.25 0.25 -0.25 0 0.25 -0.25 0.25 </DataArray>
</Points>
<Cells>
<DataArray type="Int32" Name="connectivity" format="ascii">
44 16 3 17 98 86 41 89 98 86 41 89 99 87 42 90 99 87 42 90 100 88 43 91 100 88 43 91 55 28 7 29 45 44 17 18 101 98 89 92 101 98 89 92 102 99 90 93 102 99 90 93 103 100 91 94 103 100 91 94 54 55 29 30 46 45 18 19 104 101 92 95 104 101 92 95 105 102 93 96 105 102 93 96 106 103 94 97 106 103 94 97 53 54 30 31 8 46 19 0 62 104 95 32 62 104 95 32 63 105 96 33 63 105 96 33 64 106 97 34 64 106 97 34 20 53 31 4 47 15 16 44 107 83 86 98 107 83 86 98 108 84 87 99 108 84 87 99 109 85 88 100 109 85 88 100 58 27 28 55 48 47 44 45 110 107 98 101 110 107 98 101 111 108 99 102 111 108 99 102 112 109 100 103 112 109 100 103 57 58 55 54 49 48 45 46 113 110 101 104 113 110 101 104 114 111 102 105 114 111 102 105 115 112 103 106 115 112 103 106 56 57 54 53 9 49 46 8 65 113 104 62 65 113 104 62 66 114 105 63 66 114 105 63 67 115 106 64 67 115 106 64 21 56 53 20 50 14 15 47 116 80 83 107 116 80 83 107 117 81 84 108 117 81 84 108 118 82 85 109 118 82 85 109 61 26 27 58 51 50 47 48 119 116 107 110 119 116 107 110 120 117 108 111 120 117 108 111 121 118 109 112 121 118 109 112 60 61 58 57 52 51 48 49 122 119 110 113 122 119 110 113 123 120 111 114 123 120 111 114 124 121 112 115 124 121 112 115 59 60 57 56 10 52 49 9 68 122 113 65 68 122 113 65 69 123 114 66 69 123 114 66 70 124 115 67 70 124 115 67 22 59 56 21 13 2 14 50 77 38 80 116 77 38 80 116 78 39 81 117 78 39 81 117 79 40 82 118 79 40 82 118 25 6 26 61 12 13 50 51 74 77 116 119 74 77 116 119 75 78 117 120 75 78 117 120 76 79 118 121 76 79 118 121 24 25 61 60 11 12 51 52 71 74 119 122 71 74 119 122 72 75 120 123 72 75 120 123 73 76 121 124 73 76 121 124 23 24 60 59 1 11 52 10 35 71 122 68 35 71 122 68 36 72 123 69 36 72 123 69 37 73 124 70 37 73 124 70 5 23 59 22 </DataArray>
<DataArray type="Int32" Name="offsets" format="ascii">
8 16 24 32 40 48 56 64 72 80 88 96 104 112 120 128 136 144 152 160 168 176 184 192 200 208 216 224 232 240 248 256 264 272 280 288 296 304 312 320 328 336 344 352 360 368 376 384 392 400 408 416 424 432 440 448 456 464 472 480 488 496 504 512 </DataArray>
<DataArray type="UInt8" Name="types" format="ascii">
12 12 12 12 12 12 12 12 12 12 12 12 12 12 12 12 12 12 12 12 12 12 12 12 12 12 12 12 12 12 12 12 12 12 12 12 12 12 12 12 12 12 12 12 12 12 12 12 12 12 12 12 12 12 12 12 12 12 12 12 12 12 12 12 </DataArray>
</Cells>
<CellData Scalars="scalars">
<DataArray type="Float32" Name="number_density" format="ascii">
6.6368e+12 6.8288e+12 5.6896e+12 4.64e+12 6.752e+12 8.7168e+12 7.0848e+12 5.312e+12 5.5424e+12 8.0384e+12 7.7376e+12 5.3056e+12 5.2224e+12 5.8496e+12 6.1696e+12 5.2864e+12 8.3008e+12 1.25632e+13 9.4656e+12 5.6448e+12 9.3952e+12 2.87296e+13 2.5376e+13 8.0832e+12 8.2752e+12 2.2656e+13 2.45184e+13 9.0752e+12 5.7472e+12 8.9408e+12 9.4016e+12 6.8224e+12 7.8912e+12 1.15136e+13 1.02912e+13 6.7072e+12 9.6256e+12 2.94848e+13 2.93888e+13 1.02208e+13 9.536e+12 2.5344e+13 2.81088e+13 1.09504e+13 5.7472e+12 8.6912e+12 9.9328e+12 7.0592e+12 5.7856e+12 6.912e+12 7.2192e+12 6.0096e+12 6.7584e+12 8.896e+12 9.088e+12 6.8928e+12 6.2592e+12 9.7024e+12 1.0144e+13 7.4368e+12 5.4784e+12 6.5728e+12 6.4064e+12 6.1376e+12 </DataArray>
<DataArray type="Float32" Name="potential" format="ascii">
0 0 0 0 0 0 0 0 0 0 0 0 0 0 0 0 0 0 0 0 0 0 0 0 0 0 0 0 0 0 0 0 0 0 0 0 0 0 0 0 0 0 0 0 0 0 0 0 0 0 0 0 0 0 0 0 0 0 0 0 0 0 0 0 </DataArray>
<DataArray type="Float32" Name="temperature" format="ascii">
653.126 777.912 697.356 580.983 752.589 1103.91 1011.89 705.138 665.893 1001.72 1066.99 734.585 584.565 728.303 760.986 593.814 799.156 1125.92 1028.25 701.37 1065.81 1828.03 1744.29 978.66 941.314 1620.67 1716.31 1107.06 691.24 969.955 1047.83 746.321 752.969 1077.81 1107.37 770.863 1040.51 1873.69 1873.87 1101.21 939.885 1671.02 1822.88 1150.48 723.423 1064.44 1115.07 763.597 591.329 717.407 717.759 587.18 700.964 989.87 1033.21 768.89 739.654 953.772 1055.62 780.432 588.334 733.704 753.054 572.053 </DataArray>
<DataArray type="Float32" Name="velocity" format="ascii">
407.67 606.181 792.063 674.496 626.533 834.972 1052.84 885.566 781.073 964.619 1019.36 806.483 611.176 793.097 767.936 573.221 488.825 585.32 859.618 797.889 733.629 649.429 917.119 1028.75 963.661 976.069 962.894 927.495 781.055 946.267 896.36 725.524 547.847 641.627 703.921 657.847 718.513 478.68 541.807 779.709 838.078 770.483 653.047 715.553 690.428 826.609 747.435 610.783 486.371 650.191 634.211 496.045 626.577 797.294 763.017 627.751 652.648 807.695 753.417 607.753 492.215 644.748 605.708 481.976 </DataArray>
<DataArray type="Float32" Name="E_field" format="ascii">
0 0 0 0 0 0 0 0 0 0 0 0 0 0 0 0 0 0 0 0 0 0 0 0 0 0 0 0 0 0 0 0 0 0 0 0 0 0 0 0 0 0 0 0 0 0 0 0 0 0 0 0 0 0 0 0 0 0 0 0 0 0 0 0 </DataArray>
</CellData>
<PointData Scalars="number_density">
<DataArray type="Float32" Name="number_density" format="ascii">
5.2224e+12 5.4784e+12 5.7856e+12 6.6368e+12 5.2864e+12 6.1376e+12 6.0096e+12 4.64e+12 5.4848e+12 5.7472e+12 5.6128e+12 5.8688e+12 6.5088e+12 6.272e+12 6.8384e+12 8.096e+12 7.4688e+12 6.6944e+12 6.1472e+12 5.3824e+12 6.0544e+12 6.9408e+12 6.5984e+12 6.7872e+12 7.1648e+12 6.4512e+12 6.3584e+12 6.176e+12 5.1424e+12 4.976e+12 5.3088e+12 5.296e+12 5.536e+12 6.0096e+12 5.728e+12 6.0256e+12 6.4896e+12 6.272e+12 6.3488e+12 7.0656e+12 6.6144e+12 6.7328e+12 6.2592e+12 5.1648e+12 7.7712e+12 7.4912e+12 6.1968e+12 8.8032e+12 9.208e+12 7.3264e+12 7.5152e+12 8.0448e+12 6.7552e+12 6.6224e+12 6.944e+12 5.92e+12 8.4768e+12 9.5824e+12 7.664e+12 7.896e+12 8.8752e+12 7.4576e+12 6.44e+12 7.5904e+12 6.92e+12 7.2816e+12 9.2416e+12 8.304e+12 6.6224e+12 7.9008e+12 7.384e+12 7.0032e+12 8.2064e+12 7.5312e+12 7.904e+12 9.4576e+12 8.3904e+12 7.088e+12 8.0288e+12 7.3024e+12 8.0256e+12 8.984e+12 7.5568e+12 1.00672e+13 1.09584e+13 8.0272e+12 8.5824e+12 8.6368e+12 6.36e+12 7.2336e+12 7.08e+12 5.6816e+12 7.2624e+12 7.8944e+12 6.36e+12 6.1632e+12 6.9488e+12 6.1248e+12 1.09904e+13 1.30568e+13 8.912e+12 1.22632e+13 1.66072e+13 1.15616e+13 8.784e+12 1.1664e+13 9.2896e+12 1.4688e+13 1.96016e+13 1.31472e+13 1.78808e+13 2.67008e+13 1.82152e+13 1.18672e+13 1.71992e+13 1.32336e+13 1.08584e+13 1.40992e+13 1.07272e+13 1.32008e+13 1.87696e+13 1.40288e+13 9.6664e+12 1.31128e+13 1.0772e+13 </DataArray>
<DataArray type="Float32" Name="potential" format="ascii">
0 0 0 0 0 0 0 0 0 0 0 0 0 0 0 0 0 0 0 0 0 0 0 0 0 0 0 0 0 0 0 0 0 0 0 0 0 0 0 0 0 0 0 0 0 0 0 0 0 0 0 0 0 0 0 0 0 0 0 0 0 0 0 0 0 0 0 0 0 0 0 0 0 0 0 0 0 0 0 0 0 0 0 0 0 0 0 0 0 0 0 0 0 0 0 0 0 0 0 0 0 0 0 0 0 0 0 0 0 0 0 0 0 0 0 0 0 0 0 0 0 0 0 0 0 </DataArray>
<DataArray type="Float32" Name="temperature" format="ascii">
584.565 588.334 591.329 653.126 593.814 572.053 587.18 580.983 637.903 707.331 655.879 663.994 720.309 646.147 672.149 776.062 726.141 702.857 709.241 625.229 670.068 754.959 667.825 676.242 774.661 678.035 679.022 736.117 641.176 643.06 719.861 664.2 656.434 744.644 677.4 661.019 743.379 662.554 654.368 717.583 652.47 715.519 737.634 639.169 817.67 856.402 720.753 914.611 996.879 823.965 771.443 855.253 747.824 795.446 881.362 741.538 941.865 1084.35 888.025 816.64 950.252 807.036 743.516 876.769 787.239 862.264 1049.32 918.206 777.475 916.567 800.945 753.866 874.039 790.291 846.065 1008.12 909.539 749.893 864.561 776.76 784.878 905.086 795.794 938.963 1084.84 901.964 839.029 907.36 751.99 821.884 897.766 748.841 881.027 1046.13 879.649 745.12 889.499 789.093 1013.31 1164.69 930.992 1122.49 1386.72 1133.11 900.458 1114.1 971.738 1195.49 1457.4 1163.23 1372.62 1768.84 1436.84 1077.74 1378.52 1183.7 968.068 1173.87 995.044 1113.67 1409.24 1198.32 926.778 1146.2 1001.65 </DataArray>
<DataArray type="Float32" Name="velocity" format="ascii">
611.176 492.215 486.371 407.67 573.221 481.976 496.045 674.496 693.26 703.256 581.833 569.261 613.434 547.664 510.507 467.984 440.5 505.083 687.806 694.372 646.704 619.985 534.3 537.724 580.04 555.131 565.117 683.092 729.225 777.63 815.184 680.198 696.225 741.226 662.267 564.537 594.852 538.602 564.793 609.702 557.466 495.434 664.468 731.061 540.97 745.503 777.258 534.129 710.498 774.994 572.983 662.096 653.217 741.682 861.514 836.012 669.263 720.636 744.624 573.835 610.077 616.906 771.066 797.539 724.978 760.005 737.771 676.108 643.863 642.539 586.792 638.078 657.77 594.703 673.181 666.929 621.981 623.308 651.455 608.934 566.13 593.931 599.531 472.083 526.939 682.718 495.168 653.032 769.137 589.917 759.752 842.645 758.142 845.062 892.934 775.625 818.65 771.193 566.455 691.378 855.753 750.878 754.536 877.797 831.069 828.885 802.074 451.006 376.326 678.716 590.721 274.072 604.812 776.262 665.518 669.202 581.936 536.817 606.593 629.857 473.552 559.651 683.843 630.338 597.149 </DataArray>
<DataArray type="Float32" Name="E_field" format="ascii">
0 0 0 0 0 0 0 0 0 0 0 0 0 0 0 0 0 0 0 0 0 0 0 0 0 0 0 0 0 0 0 0 0 0 0 0 0 0 0 0 0 0 0 0 0 0 0 0 0 0 0 0 0 0 0 0 0 0 0 0 0 0 0 0 0 0 0 0 0 0 0 0 0 0 0 0 0 0 0 0 0 0 0 0 0 0 0 0 0 0 0 0 0 0 0 0 0 0 0 0 0 0 0 0 0 0 0 0 0 0 0 0 0 0 0 0 0 0 0 0 0 0 0 0 0 </DataArray>
</PointData>
</Piece>
</UnstructuredGrid>
</VTKFile>
