<VTKFile type="UnstructuredGrid" version="0.1" byte_order="LittleEndian">
<UnstructuredGrid>
<Piece NumberOfPoints="125" NumberOfCells="64">
<Points>
<DataArray type="Float32" NumberOfComponents="3" format="ascii">
-0.5 -0.5 -0.5 0.5 -0.5 -0.5 0.5 0.5 -0.5 -0.5 0.5 -0.5 -0.5 -0.5 0.5 0.5 -0.5 0.5 0.5 0.5 0.5 -0.5 0.5 0.5 -0.25 -0.5 -0.5 0 -0.5 -0.5 0.25 -0.5 -0.5 0.5 -0.25 -0.5 0.5 0 -0.5 0.5 0.25 -0.5 0.25 0.5 -0.5 0 0.5 -0.5 -0.25 0.5 -0.5 -0.5 0.25 -0.5 -0.5 0 -0.5 -0.5 -0.25 -0.5 -0.25 -0.5 0.5 0 -0.5 0.5 0.25 -0.5 0.5 0.5 -0.25 0.5 0.5 0 0.5 0.5 0.25 0.5 0.25 0.5 0.5 0 0.5 0.5 -0.25 0.5 0.5 -0.5 0.25 0.5 -0.5 0 0.5 -0.5 -0.25 0.5 -0.5 -0.5 -0.25 -0.5 -0.5 0 -0.5 -0.5 0.25 0.5 -0.5 -0.25 0.5 -0.5 0 0.5 -0.5 0.25 0.5 0.5 -0.25 0.5 0.5 0 0.5 0.5 0.25 -0.5 0.5 -0.25 -0.5 0.5 0 -0.5 0.5 0.25 -0.25 0.25 -0.5 -0.25 0 -0.5 -0.25 -0.25 -0.5 0 0.25 -0.5 0 0 -0.5 0 -0.25 -0.5 0.25 0.25 -0.5 0.25 0 -0.5 0.25 -0.25 -0.5 -0.25 -0.25 0.5 -0.25 0 0.5 -0.25 0.25 0.5 0 -0.25 0.5 0 0 0.5 0 0.25 0.5 0.25 -0.25 0.5 0.25 0 0.5 0.25 0.25 0.5 -0.25 -0.5 -0.25 -0.25 -0.5 0 -0.25 -0.5 0.25 0 -0.5 -0.25 0 -0.5 0 0 -0.5 0.25 0.25 -0.5 -0.25 0.25 -0.5 0 0.25 -0.5 0.25 0.5 -0.25 -0.25 0.5 -0.25 0 0.5 -0.25 0.25 0.5 0 -0.25 0.5 0 0 0.5 0 0.25 0.5 0.25 -0.25 0.5 0.25 0 0.5 0.25 0.25 0.25 0.5 -0.25 0.25 0.5 0 0.25 0.5 0.25 0 0.5 -0.25 0 0.5 0 0 0.5 0.25 -0.25 0.5 -0.25 -0.25 0.5 0 -0.25 0.5 0.25 -0.5 0.25 -0.25 -0.5 0.25 0 -0.5 0.25 0.25 -0.5 0 -0.25 -0.5 0 0 -0.5 0 0.25 -0.5 -0.25 -0.25 -0.5 -0.25 0 -0.5 -0.25 0.25 -0.25 0.25 -0.25 -0.25 0.25 0 -0.25 0.25 0.25 -0.25 0 -0.25 -0.25 0 0 -0.25 0 0.25 -0.25 -0.25 -0.25 -0.25 -0.25 0 -0.25 -0.25 0.25 0 0.25 -0.25 0 0.25 0 0 0.25 0.25 0 0 -0.25 0 0 0 0 0 0.25 0 -0.25 -0.25 0 -0.25 0 0 -0.25 0.25 0.25 0.25 -0.25 0.25 0.25 0 0.25 0.25 0.25 0.25 0 -0.25 0.25 0 0 0.25 0 0.25 0.25 -0.25 -0.25 0.25 -0.25 0 0.25 -0.25 0.25 </DataArray>
</Points>
<Cells>
<DataArray type="Int32" Name="connectivity" format="ascii">
44 16 3 17 98 86 41 89 98 86 41 89 99 87 42 90 99 87 42 90 100 88 43 91 100 88 43 91 55 28 7 29 45 44 17 18 101 98 89 92 101 98 89 92 102 99 90 93 102 99 90 93 103 100 91 94 103 100 91 94 54 55 29 30 46 45 18 19 104 101 92 95 104 101 92 95 105 102 93 96 105 102 93 96 106 103 94 97 106 103 94 97 53 54 30 31 8 46 19 0 62 104 95 32 62 104 95 32 63 105 96 33 63 105 96 33 64 106 97 34 64 106 97 34 20 53 31 4 47 15 16 44 107 83 86 98 107 83 86 98 108 84 87 99 108 84 87 99 109 85 88 100 109 85 88 100 58 27 28 55 48 47 44 45 110 107 98 101 110 107 98 101 111 108 99 102 111 108 99 102 112 109 100 103 112 109 100 103 57 58 55 54 49 48 45 46 113 110 101 104 113 110 101 104 114 111 102 105 114 111 102 105 115 112 103 106 115 112 103 106 56 57 54 53 9 49 46 8 65 113 104 62 65 113 104 62 66 114 105 63 66 114 105 63 67 115 106 64 67 115 106 64 21 56 53 20 50 14 15 47 116 80 83 107 116 80 83 107 117 81 84 108 117 81 84 108 118 82 85 109 118 82 85 109 61 26 27 58 51 50 47 48 119 116 107 110 119 116 107 110 120 117 108 111 120 117 108 111 121 118 109 112 121 118 109 112 60 61 58 57 52 51 48 49 122 119 110 113 122 119 110 113 123 120 111 114 123 120 111 114 124 121 112 115 124 121 112 115 59 60 57 56 10 52 49 9 68 122 113 65 68 122 113 65 69 123 114 66 69 123 114 66 70 124 115 67 70 124 115 67 22 59 56 21 13 2 14 50 77 38 80 116 77 38 80 116 78 39 81 117 78 39 81 117 79 40 82 118 79 40 82 118 25 6 26 61 12 13 50 51 74 77 116 119 74 77 116 119 75 78 117 120 75 78 117 120 76 79 118 121 76 79 118 121 24 25 61 60 11 12 51 52 71 74 119 122 71 74 119 122 72 75 120 123 72 75 120 123 73 76 121 124 73 76 121 124 23 24 60 59 1 11 52 10 35 71 122 68 35 71 122 68 36 72 123 69 36 72 123 69 37 73 124 70 37 73 124 70 5 23 59 22 </DataArray>
<DataArray type="Int32" Name="offsets" format="ascii">
8 16 24 32 40 48 56 64 72 80 88 96 104 112 120 128 136 144 152 160 168 176 184 192 200 208 216 224 232 240 248 256 264 272 280 288 296 304 312 320 328 336 344 352 360 368 376 384 392 400 408 416 424 432 440 448 456 464 472 480 488 496 504 512 </DataArray>
<DataArray type="UInt8" Name="types" format="ascii">
12 12 12 12 12 12 12 12 12 12 12 12 12 12 12 12 12 12 12 12 12 12 12 12 12 12 12 12 12 12 12 12 12 12 12 12 12 12 12 12 12 12 12 12 12 12 12 12 12 12 12 12 12 12 12 12 12 12 12 12 12 12 12 12 </DataArray>
</Cells>
<CellData Scalars="scalars">
<DataArray type="Float32" Name="number_density" format="ascii">
7.7312e+12 8.1408e+12 7.328e+12 6.2656e+12 7.9104e+12 9.5808e+12 8.4288e+12 6.72e+12 7.072e+12 9.0752e+12 8.8704e+12 6.8096e+12 6.7968e+12 7.1424e+12 7.3664e+12 6.9888e+12 9.0048e+12 1.17312e+13 9.8368e+12 7.1552e+12 9.9456e+12 2.10176e+13 1.99744e+13 9.0432e+12 9.0688e+12 1.82272e+13 1.93088e+13 9.568e+12 7.264e+12 9.7792e+12 9.9008e+12 7.904e+12 8.6464e+12 1.10912e+13 1.05664e+13 7.9232e+12 9.9392e+12 2.10496e+13 2.07808e+13 1.06496e+13 1.02016e+13 1.936e+13 2.05568e+13 1.11424e+13 7.1744e+12 9.6e+12 1.0144e+13 8.2176e+12 7.2e+12 7.7952e+12 8.3904e+12 7.52e+12 7.9616e+12 9.5424e+12 9.7024e+12 8.0704e+12 7.5776e+12 1.00736e+13 1.02848e+13 8.2752e+12 6.72e+12 7.7504e+12 7.68e+12 7.456e+12 </DataArray>
<DataArray type="Float32" Name="potential" format="ascii">
0 0 0 0 0 0 0 0 0 0 0 0 0 0 0 0 0 0 0 0 0 0 0 0 0 0 0 0 0 0 0 0 0 0 0 0 0 0 0 0 0 0 0 0 0 0 0 0 0 0 0 0 0 0 0 0 0 0 0 0 0 0 0 0 </DataArray>
<DataArray type="Float32" Name="temperature" format="ascii">
687.622 740.717 685.601 613.234 745.82 936.953 908.648 727.712 666.626 944.523 930.497 729.612 607.964 731.977 719.61 638.809 762.265 964.36 916.346 698.004 911.488 1432.53 1336.91 883.376 880.082 1266.16 1351.74 955.091 697.358 906.836 950.372 724.751 719.55 954.422 979.78 754.367 924.744 1388.52 1439.42 954.122 856.694 1322.42 1405.76 962.14 710.573 922.197 944.915 743.124 630.652 679.605 690.255 609.444 691.672 905.103 912.905 747.098 742.613 872.079 914.555 735.396 614.857 717.624 734.769 612.571 </DataArray>
<DataArray type="Float32" Name="velocity" format="ascii">
348.285 530.664 675.743 574.386 534.348 729.41 908.471 743.834 656.746 817.987 874.055 696.371 525.489 667.486 654.863 504.204 405.485 496.349 733.224 684.283 637.055 555.837 798.329 863.958 820.307 833.73 810.966 798.386 656.328 797.945 761.147 610.45 471.212 539.291 613.045 564.589 603.947 458.87 489.759 664.226 712.193 672.698 566.475 626.226 593.445 721.039 656.194 513.6 418.172 541.766 544.324 417.712 540.16 680.141 665.463 544.388 551.753 667.914 639.67 512.653 417.748 552.627 529.924 411.633 </DataArray>
<DataArray type="Float32" Name="E_field" format="ascii">
0 0 0 0 0 0 0 0 0 0 0 0 0 0 0 0 0 0 0 0 0 0 0 0 0 0 0 0 0 0 0 0 0 0 0 0 0 0 0 0 0 0 0 0 0 0 0 0 0 0 0 0 0 0 0 0 0 0 0 0 0 0 0 0 </DataArray>
</CellData>
<PointData Scalars="number_density">
<DataArray type="Float32" Name="number_density" format="ascii">
6.7968e+12 6.72e+12 7.2e+12 7.7312e+12 6.9888e+12 7.456e+12 7.52e+12 6.2656e+12 7.0304e+12 7.2192e+12 6.9472e+12 7.1488e+12 7.7696e+12 7.5808e+12 7.9232e+12 8.8256e+12 8.368e+12 7.8208e+12 7.4912e+12 6.9344e+12 7.4464e+12 8.0608e+12 7.8368e+12 7.8656e+12 8.1728e+12 7.7952e+12 7.7216e+12 7.5392e+12 6.7104e+12 6.4928e+12 6.7648e+12 6.8992e+12 6.9696e+12 7.2544e+12 7.1776e+12 7.2352e+12 7.7152e+12 7.568e+12 7.4976e+12 8.0928e+12 7.9552e+12 7.936e+12 7.7344e+12 6.7968e+12 8.648e+12 8.4992e+12 7.5504e+12 9.384e+12 9.7888e+12 8.4272e+12 8.4368e+12 8.92e+12 7.9184e+12 7.8176e+12 8.0352e+12 7.296e+12 9.208e+12 1.01008e+13 8.6928e+12 8.7728e+12 9.5344e+12 8.5408e+12 7.7456e+12 8.5472e+12 8.04e+12 8.4544e+12 9.856e+12 9.0416e+12 7.8112e+12 8.7936e+12 8.3744e+12 8.0304e+12 8.9472e+12 8.424e+12 8.7888e+12 9.9008e+12 9.0832e+12 8.1248e+12 8.8576e+12 8.4208e+12 8.6832e+12 9.4608e+12 8.6e+12 1.01184e+13 1.08064e+13 8.8704e+12 9.152e+12 9.2592e+12 7.6464e+12 8.3408e+12 8.3696e+12 7.1856e+12 8.4096e+12 8.9888e+12 7.7072e+12 7.5216e+12 8.1136e+12 7.5088e+12 1.06328e+13 1.20048e+13 9.344e+12 1.14872e+13 1.43104e+13 1.10904e+13 9.3032e+12 1.12088e+13 9.5896e+12 1.28032e+13 1.5756e+13 1.19912e+13 1.48512e+13 2.00344e+13 1.5128e+13 1.13344e+13 1.46096e+13 1.20928e+13 1.04032e+13 1.23648e+13 1.04504e+13 1.19632e+13 1.51688e+13 1.24328e+13 9.8072e+12 1.19312e+13 1.04696e+13 </DataArray>
<DataArray type="Float32" Name="potential" format="ascii">
0 0 0 0 0 0 0 0 0 0 0 0 0 0 0 0 0 0 0 0 0 0 0 0 0 0 0 0 0 0 0 0 0 0 0 0 0 0 0 0 0 0 0 0 0 0 0 0 0 0 0 0 0 0 0 0 0 0 0 0 0 0 0 0 0 0 0 0 0 0 0 0 0 0 0 0 0 0 0 0 0 0 0 0 0 0 0 0 0 0 0 0 0 0 0 0 0 0 0 0 0 0 0 0 0 0 0 0 0 0 0 0 0 0 0 0 0 0 0 0 0 0 0 0 0 </DataArray>
<DataArray type="Float32" Name="temperature" format="ascii">
607.964 614.857 630.652 687.622 638.809 612.571 609.444 613.234 652.661 703.966 662.715 678.735 717.142 661.162 675.101 740.908 724.943 716.721 706.223 637.295 681.78 733.938 677.848 673.984 741.247 678.271 681.906 726.185 655.619 670.473 728.662 684.21 669.97 725.793 679.209 666.24 726.197 673.67 655.128 684.93 649.85 714.169 713.159 649.418 776.799 801.004 713.007 829.512 893.252 786.177 741.655 803.931 731.184 762.066 823.948 730.581 846.277 938.682 822.467 763.308 849.689 766.258 736.034 827.199 758.385 809.241 931.08 840.791 741.313 829.876 758.845 736.793 809.757 749.323 802.867 901.161 827.488 726.758 796.967 739.926 746.057 826.016 758.461 850.15 953.727 837.124 788.741 826.756 728.296 777.778 817.98 733.799 823.481 930.155 824.117 737.772 831.652 754.632 897.719 990.258 846.229 973.022 1138.49 977.948 837.69 975.214 875.06 1007.23 1176.54 995.291 1122.83 1367.93 1161.07 945.29 1133.8 1004.74 861.784 993.751 885.924 962.981 1145.1 1008.92 844.883 979.291 881.654 </DataArray>
<DataArray type="Float32" Name="velocity" format="ascii">
525.489 417.748 418.172 348.285 504.204 411.633 417.712 574.386 587.611 604.143 494.602 478.827 528.344 471.917 437.905 403.43 367.611 430.547 584.813 588.804 554.094 525.458 452.33 454.817 498.991 475.172 478.229 595.461 621.717 656.511 697.097 592.002 589.253 636.232 569.429 482.666 517.509 465.983 476.224 520.751 472.527 428.729 578.069 622.537 458.563 636.105 656.318 463.937 618.844 663.479 487.648 564.627 550.078 635.144 737.771 704.003 573.54 634.951 640.168 488.034 528.154 523.808 648.855 678.622 614.633 654.985 648.426 580.158 551.315 562.308 504.291 534.225 560.223 505.853 573.656 585.764 540.738 528.342 559.006 520.01 476.306 510.418 509.695 402.263 469.718 596.554 417.362 561.451 653.763 508.635 661.005 716.272 647.939 744.696 767.744 652.047 706.934 661.671 480.215 593.955 725.217 638.886 652.31 750.271 697.8 705.808 678.44 390.424 337.451 588.935 512.67 215.625 525.9 665.123 575.02 568.866 495.527 467.096 516.413 540.12 422.907 487.541 576.873 542.544 508.9 </DataArray>
<DataArray type="Float32" Name="E_field" format="ascii">
0 0 0 0 0 0 0 0 0 0 0 0 0 0 0 0 0 0 0 0 0 0 0 0 0 0 0 0 0 0 0 0 0 0 0 0 0 0 0 0 0 0 0 0 0 0 0 0 0 0 0 0 0 0 0 0 0 0 0 0 0 0 0 0 0 0 0 0 0 0 0 0 0 0 0 0 0 0 0 0 0 0 0 0 0 0 0 0 0 0 0 0 0 0 0 0 0 0 0 0 0 0 0 0 0 0 0 0 0 0 0 0 0 0 0 0 0 0 0 0 0 0 0 0 0 </DataArray>
</PointData>
</Piece>
</UnstructuredGrid>
</VTKFile>
