<VTKFile type="UnstructuredGrid" version="0.1" byte_order="LittleEndian">
<UnstructuredGrid>
<Piece NumberOfPoints="125" NumberOfCells="64">
<Points>
<DataArray type="Float32" NumberOfComponents="3" format="ascii">
-0.5 -0.5 -0.5 0.5 -0.5 -0.5 0.5 0.5 -0.5 -0.5 0.5 -0.5 -0.5 -0.5 0.5 0.5 -0.5 0.5 0.5 0.5 0.5 -0.5 0.5 0.5 -0.25 -0.5 -0.5 0 -0.5 -0.5 0.25 -0.5 -0.5 0.5 -0.25 -0.5 0.5 0 -0.5 0.5 0.25 -0.5 0.25 0.5 -0.5 0 0.5 -0.5 -0.25 0.5 -0.5 -0.5 0.25 -0.5 -0.5 0 -0.5 -0.5 -0.25 -0.5 -0.25 -0.5 0.5 0 -0.5 0.5 0.25 -0.5 0.5 0.5 -0.25 0.5 0.5 0 0.5 0.5 0.25 0.5 0.25 0.5 0.5 0 0.5 0.5 -0.25 0.5 0.5 -0.5 0.25 0.5 -0.5 0 0.5 -0.5 -0.25 0.5 -0.5 -0.5 -0.25 -0.5 -0.5 0 -0.5 -0.5 0.25 0.5 -0.5 -0.25 0.5 -0.5 0 0.5 -0.5 0.25 0.5 0.5 -0.25 0.5 0.5 0 0.5 0.5 0.25 -0.5 0.5 -0.25 -0.5 0.5 0 -0.5 0.5 0.25 -0.25 0.25 -0.5 -0.25 0 -0.5 -0.25 -0.25 -0.5 0 0.25 -0.5 0 0 -0.5 0 -0.25 -0.5 0.25 0.25 -0.5 0.25 0 -0.5 0.25 -0.25 -0.5 -0.25 -0.25 0.5 -0.25 0 0.5 -0.25 0.25 0.5 0 -0.25 0.5 0 0 0.5 0 0.25 0.5 0.25 -0.25 0.5 0.25 0 0.5 0.25 0.25 0.5 -0.25 -0.5 -0.25 -0.25 -0.5 0 -0.25 -0.5 0.25 0 -0.5 -0.25 0 -0.5 0 0 -0.5 0.25 0.25 -0.5 -0.25 0.25 -0.5 0 0.25 -0.5 0.25 0.5 -0.25 -0.25 0.5 -0.25 0 0.5 -0.25 0.25 0.5 0 -0.25 0.5 0 0 0.5 0 0.25 0.5 0.25 -0.25 0.5 0.25 0 0.5 0.25 0.25 0.25 0.5 -0.25 0.25 0.5 0 0.25 0.5 0.25 0 0.5 -0.25 0 0.5 0 0 0.5 0.25 -0.25 0.5 -0.25 -0.25 0.5 0 -0.25 0.5 0.25 -0.5 0.25 -0.25 -0.5 0.25 0 -0.5 0.25 0.25 -0.5 0 -0.25 -0.5 0 0 -0.5 0 0.25 -0.5 -0.25 -0.25 -0.5 -0.25 0 -0.5 -0.25 0.25 -0.25 0.25 -0.25 -0.25 0.25 0 -0.25 0.25 0.25 -0.25 0 -0.25 -0.25 0 0 -0.25 0 0.25 -0.25 -0.25 -0.25 -0.25 -0.25 0 -0.25 -0.25 0.25 0 0.25 -0.25 0 0.25 0 0 0.25 0.25 0 0 -0.25 0 0 0 0 0 0.25 0 -0.25 -0.25 0 -0.25 0 0 -0.25 0.25 0.25 0.25 -0.25 0.25 0.25 0 0.25 0.25 0.25 0.25 0 -0.25 0.25 0 0 0.25 0 0.25 0.25 -0.25 -0.25 0.25 -0.25 0 0.25 -0.25 0.25 </DataArray>
</Points>
<Cells>
<DataArray type="Int32" Name="connectivity" format="ascii">
44 16 3 17 98 86 41 89 98 86 41 89 99 87 42 90 99 87 42 90 100 88 43 91 100 88 43 91 55 28 7 29 45 44 17 18 101 98 89 92 101 98 89 92 102 99 90 93 102 99 90 93 103 100 91 94 103 100 91 94 54 55 29 30 46 45 18 19 104 101 92 95 104 101 92 95 105 102 93 96 105 102 93 96 106 103 94 97 106 103 94 97 53 54 30 31 8 46 19 0 62 104 95 32 62 104 95 32 63 105 96 33 63 105 96 33 64 106 97 34 64 106 97 34 20 53 31 4 47 15 16 44 107 83 86 98 107 83 86 98 108 84 87 99 108 84 87 99 109 85 88 100 109 85 88 100 58 27 28 55 48 47 44 45 110 107 98 101 110 107 98 101 111 108 99 102 111 108 99 102 112 109 100 103 112 109 100 103 57 58 55 54 49 48 45 46 113 110 101 104 113 110 101 104 114 111 102 105 114 111 102 105 115 112 103 106 115 112 103 106 56 57 54 53 9 49 46 8 65 113 104 62 65 113 104 62 66 114 105 63 66 114 105 63 67 115 106 64 67 115 106 64 21 56 53 20 50 14 15 47 116 80 83 107 116 80 83 107 117 81 84 108 117 81 84 108 118 82 85 109 118 82 85 109 61 26 27 58 51 50 47 48 119 116 107 110 119 116 107 110 120 117 108 111 120 117 108 111 121 118 109 112 121 118 109 112 60 61 58 57 52 51 48 49 122 119 110 113 122 119 110 113 123 120 111 114 123 120 111 114 124 121 112 115 124 121 112 115 59 60 57 56 10 52 49 9 68 122 113 65 68 122 113 65 69 123 114 66 69 123 114 66 70 124 115 67 70 124 115 67 22 59 56 21 13 2 14 50 77 38 80 116 77 38 80 116 78 39 81 117 78 39 81 117 79 40 82 118 79 40 82 118 25 6 26 61 12 13 50 51 74 77 116 119 74 77 116 119 75 78 117 120 75 78 117 120 76 79 118 121 76 79 118 121 24 25 61 60 11 12 51 52 71 74 119 122 71 74 119 122 72 75 120 123 72 75 120 123 73 76 121 124 73 76 121 124 23 24 60 59 1 11 52 10 35 71 122 68 35 71 122 68 36 72 123 69 36 72 123 69 37 73 124 70 37 73 124 70 5 23 59 22 </DataArray>
<DataArray type="Int32" Name="offsets" format="ascii">
8 16 24 32 40 48 56 64 72 80 88 96 104 112 120 128 136 144 152 160 168 176 184 192 200 208 216 224 232 240 248 256 264 272 280 288 296 304 312 320 328 336 344 352 360 368 376 384 392 400 408 416 424 432 440 448 456 464 472 480 488 496 504 512 </DataArray>
<DataArray type="UInt8" Name="types" format="ascii">
12 12 12 12 12 12 12 12 12 12 12 12 12 12 12 12 12 12 12 12 12 12 12 12 12 12 12 12 12 12 12 12 12 12 12 12 12 12 12 12 12 12 12 12 12 12 12 12 12 12 12 12 12 12 12 12 12 12 12 12 12 12 12 12 </DataArray>
</Cells>
<CellData Scalars="scalars">
<DataArray type="Float32" Name="number_density" format="ascii">
6.8608e+12 7.2384e+12 6.0352e+12 4.9344e+12 6.8928e+12 8.8896e+12 7.3152e+12 5.6448e+12 5.9968e+12 8.2368e+12 8.0768e+12 5.5744e+12 5.4848e+12 6.0352e+12 6.3488e+12 5.664e+12 8.4544e+12 1.23072e+13 9.6704e+12 5.9584e+12 9.536e+12 2.70976e+13 2.43968e+13 8.2432e+12 8.2944e+12 2.20416e+13 2.34624e+13 9.216e+12 6.0864e+12 9.0112e+12 9.5168e+12 7.0784e+12 8.0128e+12 1.14304e+13 1.04128e+13 6.9696e+12 9.8432e+12 2.7424e+13 2.72704e+13 1.03936e+13 9.6832e+12 2.38784e+13 2.63744e+13 1.10976e+13 6.1632e+12 9.0112e+12 9.9776e+12 7.3024e+12 6.0736e+12 7.1296e+12 7.4944e+12 6.2464e+12 7.008e+12 9.1072e+12 9.2224e+12 7.168e+12 6.5472e+12 9.8368e+12 1.0208e+13 7.4624e+12 5.6832e+12 6.7648e+12 6.7328e+12 6.4704e+12 </DataArray>
<DataArray type="Float32" Name="potential" format="ascii">
0 0 0 0 0 0 0 0 0 0 0 0 0 0 0 0 0 0 0 0 0 0 0 0 0 0 0 0 0 0 0 0 0 0 0 0 0 0 0 0 0 0 0 0 0 0 0 0 0 0 0 0 0 0 0 0 0 0 0 0 0 0 0 0 </DataArray>
<DataArray type="Float32" Name="temperature" format="ascii">
659.256 767.126 689.101 584.568 731.666 1074.51 973.295 718.204 677.909 984.4 1044.94 729.657 594.644 713.559 745.442 601.892 792.659 1085.02 1020.09 706.827 1026.63 1739.55 1656.58 956.354 934.659 1541.42 1645.96 1053.94 686.766 949.731 1025.46 746.261 747.336 1051.31 1088.14 768.079 1024.72 1761.38 1777.42 1074.93 913.703 1597.16 1727.28 1119.83 731.624 1040.15 1084.44 756.298 594.979 706.414 709.444 585.244 702.519 971.743 1016.55 770.706 747.054 940.926 1009.99 759.071 588.334 717.637 762.207 588.971 </DataArray>
<DataArray type="Float32" Name="velocity" format="ascii">
396.01 598.875 769.207 650.092 605.111 819.785 1022.95 864.414 761.723 930.768 994.223 788.315 591.247 768.496 747.606 563.157 473.083 565.114 836.927 782.463 719.933 637.936 902.486 995.655 934.394 952.66 935.346 905.449 759.56 919.704 869.338 705.173 535.125 621.579 687.821 638.511 697.827 481.324 529.432 759.367 811.57 758.573 639.517 696.293 674.729 809.425 731.877 589.698 478.296 630.113 613.469 483.059 610.232 773.779 747.656 614.044 635.028 776.085 731.538 585.035 478.513 629.021 598.994 478.112 </DataArray>
<DataArray type="Float32" Name="E_field" format="ascii">
0 0 0 0 0 0 0 0 0 0 0 0 0 0 0 0 0 0 0 0 0 0 0 0 0 0 0 0 0 0 0 0 0 0 0 0 0 0 0 0 0 0 0 0 0 0 0 0 0 0 0 0 0 0 0 0 0 0 0 0 0 0 0 0 </DataArray>
</CellData>
<PointData Scalars="number_density">
<DataArray type="Float32" Name="number_density" format="ascii">
5.4848e+12 5.6832e+12 6.0736e+12 6.8608e+12 5.664e+12 6.4704e+12 6.2464e+12 4.9344e+12 5.7856e+12 6.1248e+12 5.9232e+12 6.1152e+12 6.7776e+12 6.5408e+12 7.0432e+12 8.2336e+12 7.6576e+12 6.8768e+12 6.4448e+12 5.7408e+12 6.3712e+12 7.1904e+12 6.8864e+12 6.9664e+12 7.3152e+12 6.7072e+12 6.608e+12 6.464e+12 5.4464e+12 5.2896e+12 5.6096e+12 5.6192e+12 5.76e+12 6.192e+12 6.0064e+12 6.224e+12 6.7488e+12 6.6016e+12 6.6016e+12 7.312e+12 6.8704e+12 7.0496e+12 6.6368e+12 5.4848e+12 7.936e+12 7.68e+12 6.4656e+12 8.9616e+12 9.3392e+12 7.5568e+12 7.7344e+12 8.2704e+12 7.0192e+12 6.8832e+12 7.1696e+12 6.1952e+12 8.6736e+12 9.7376e+12 7.8912e+12 8.0832e+12 9.0304e+12 7.6944e+12 6.6544e+12 7.728e+12 7.152e+12 7.568e+12 9.3792e+12 8.4688e+12 6.9056e+12 8.1216e+12 7.6208e+12 7.208e+12 8.3856e+12 7.7184e+12 8.1248e+12 9.5936e+12 8.5152e+12 7.3296e+12 8.2384e+12 7.5328e+12 8.1616e+12 9.1168e+12 7.7808e+12 1.00512e+13 1.09552e+13 8.2528e+12 8.7152e+12 8.8128e+12 6.6496e+12 7.4704e+12 7.3696e+12 5.9824e+12 7.504e+12 8.1296e+12 6.6528e+12 6.4384e+12 7.1744e+12 6.416e+12 1.09096e+13 1.28688e+13 9.0248e+12 1.21232e+13 1.61896e+13 1.14912e+13 8.8984e+12 1.15912e+13 9.3672e+12 1.42632e+13 1.87512e+13 1.29144e+13 1.72248e+13 2.52432e+13 1.75568e+13 1.17712e+13 1.66592e+13 1.30032e+13 1.07536e+13 1.36864e+13 1.06472e+13 1.2916e+13 1.79152e+13 1.36496e+13 9.696e+12 1.2848e+13 1.07032e+13 </DataArray>
<DataArray type="Float32" Name="potential" format="ascii">
0 0 0 0 0 0 0 0 0 0 0 0 0 0 0 0 0 0 0 0 0 0 0 0 0 0 0 0 0 0 0 0 0 0 0 0 0 0 0 0 0 0 0 0 0 0 0 0 0 0 0 0 0 0 0 0 0 0 0 0 0 0 0 0 0 0 0 0 0 0 0 0 0 0 0 0 0 0 0 0 0 0 0 0 0 0 0 0 0 0 0 0 0 0 0 0 0 0 0 0 0 0 0 0 0 0 0 0 0 0 0 0 0 0 0 0 0 0 0 0 0 0 0 0 0 </DataArray>
<DataArray type="Float32" Name="temperature" format="ascii">
594.644 588.334 594.979 659.256 601.892 588.971 585.244 584.568 640.705 709.195 659.979 667.694 724.787 648.749 671.157 769.998 725.958 695.461 704.787 636.276 674.076 751.28 672.635 674.021 764.888 677.975 676.661 737.453 645.697 651.386 723.931 665.774 654.101 729.501 673.667 652.985 739.922 675.589 650.697 707.929 647.344 713.191 728.114 636.834 802.554 842.717 723.494 897.836 974.928 816.688 767.388 846.998 745.179 782.938 864.54 741.488 919.083 1051.26 876.547 806.043 931.134 799.739 736.175 858.547 779.763 852.068 1024.94 903.114 769.437 901.109 797.979 748.488 857.689 780.059 840.561 984.8 889.077 743.914 851.037 770.485 775.01 888.827 787.727 919.081 1061.14 895.783 826.015 890.333 750.145 808.14 876.008 741.292 867.122 1019.29 866.525 742.628 872.086 780.483 984.553 1125.66 913.126 1088.84 1332.58 1097.37 885.385 1081.36 949.194 1153.58 1397.44 1131.05 1317.4 1680.84 1376.54 1049.4 1326.45 1144.93 945.05 1135.3 973.814 1082.4 1350.31 1156.97 909.574 1109.97 976.01 </DataArray>
<DataArray type="Float32" Name="velocity" format="ascii">
591.247 478.513 478.296 396.01 563.157 478.112 483.059 650.092 672.5 686.143 567.26 552.578 598.254 536.141 499.521 457.432 426.442 489.328 667.436 674.961 631.182 603.29 522.257 523.829 564.714 542.169 549.048 667.892 709.64 754.656 796.53 666.458 673.862 722.152 646.175 550.301 586.046 532.443 550.709 590.596 540.727 485.94 650.487 707.534 525.177 725.871 754.859 522.157 695.386 753.865 558.542 644.31 633.896 723.761 838.838 812.019 652.133 704.916 726.128 557.682 595.269 600.276 747.897 777.054 704.007 741.354 723.628 657.642 627.882 631.624 574.858 617.898 640.561 579.221 652.655 654.017 607.846 605.962 634.739 592.819 550.485 576.78 582.562 460.398 515.675 667.742 481.143 636.117 748.319 576.112 742.193 817.604 735.928 827.39 871.231 750.506 797.68 752.676 551.194 674.264 832.392 730.871 737.346 854.642 805.823 807.246 779.632 440.969 370.141 663.424 577.941 262.437 590.5 756.114 650.868 650.634 566.69 525.143 589.607 612.855 466.594 546.675 664.023 615.617 581.039 </DataArray>
<DataArray type="Float32" Name="E_field" format="ascii">
0 0 0 0 0 0 0 0 0 0 0 0 0 0 0 0 0 0 0 0 0 0 0 0 0 0 0 0 0 0 0 0 0 0 0 0 0 0 0 0 0 0 0 0 0 0 0 0 0 0 0 0 0 0 0 0 0 0 0 0 0 0 0 0 0 0 0 0 0 0 0 0 0 0 0 0 0 0 0 0 0 0 0 0 0 0 0 0 0 0 0 0 0 0 0 0 0 0 0 0 0 0 0 0 0 0 0 0 0 0 0 0 0 0 0 0 0 0 0 0 0 0 0 0 0 </DataArray>
</PointData>
</Piece>
</UnstructuredGrid>
</VTKFile>
