<VTKFile type="UnstructuredGrid" version="0.1" byte_order="LittleEndian">
<UnstructuredGrid>
<Piece NumberOfPoints="125" NumberOfCells="64">
<Points>
<DataArray type="Float32" NumberOfComponents="3" format="ascii">
-0.5 -0.5 -0.5 0.5 -0.5 -0.5 0.5 0.5 -0.5 -0.5 0.5 -0.5 -0.5 -0.5 0.5 0.5 -0.5 0.5 0.5 0.5 0.5 -0.5 0.5 0.5 -0.25 -0.5 -0.5 0 -0.5 -0.5 0.25 -0.5 -0.5 0.5 -0.25 -0.5 0.5 0 -0.5 0.5 0.25 -0.5 0.25 0.5 -0.5 0 0.5 -0.5 -0.25 0.5 -0.5 -0.5 0.25 -0.5 -0.5 0 -0.5 -0.5 -0.25 -0.5 -0.25 -0.5 0.5 0 -0.5 0.5 0.25 -0.5 0.5 0.5 -0.25 0.5 0.5 0 0.5 0.5 0.25 0.5 0.25 0.5 0.5 0 0.5 0.5 -0.25 0.5 0.5 -0.5 0.25 0.5 -0.5 0 0.5 -0.5 -0.25 0.5 -0.5 -0.5 -0.25 -0.5 -0.5 0 -0.5 -0.5 0.25 0.5 -0.5 -0.25 0.5 -0.5 0 0.5 -0.5 0.25 0.5 0.5 -0.25 0.5 0.5 0 0.5 0.5 0.25 -0.5 0.5 -0.25 -0.5 0.5 0 -0.5 0.5 0.25 -0.25 0.25 -0.5 -0.25 0 -0.5 -0.25 -0.25 -0.5 0 0.25 -0.5 0 0 -0.5 0 -0.25 -0.5 0.25 0.25 -0.5 0.25 0 -0.5 0.25 -0.25 -0.5 -0.25 -0.25 0.5 -0.25 0 0.5 -0.25 0.25 0.5 0 -0.25 0.5 0 0 0.5 0 0.25 0.5 0.25 -0.25 0.5 0.25 0 0.5 0.25 0.25 0.5 -0.25 -0.5 -0.25 -0.25 -0.5 0 -0.25 -0.5 0.25 0 -0.5 -0.25 0 -0.5 0 0 -0.5 0.25 0.25 -0.5 -0.25 0.25 -0.5 0 0.25 -0.5 0.25 0.5 -0.25 -0.25 0.5 -0.25 0 0.5 -0.25 0.25 0.5 0 -0.25 0.5 0 0 0.5 0 0.25 0.5 0.25 -0.25 0.5 0.25 0 0.5 0.25 0.25 0.25 0.5 -0.25 0.25 0.5 0 0.25 0.5 0.25 0 0.5 -0.25 0 0.5 0 0 0.5 0.25 -0.25 0.5 -0.25 -0.25 0.5 0 -0.25 0.5 0.25 -0.5 0.25 -0.25 -0.5 0.25 0 -0.5 0.25 0.25 -0.5 0 -0.25 -0.5 0 0 -0.5 0 0.25 -0.5 -0.25 -0.25 -0.5 -0.25 0 -0.5 -0.25 0.25 -0.25 0.25 -0.25 -0.25 0.25 0 -0.25 0.25 0.25 -0.25 0 -0.25 -0.25 0 0 -0.25 0 0.25 -0.25 -0.25 -0.25 -0.25 -0.25 0 -0.25 -0.25 0.25 0 0.25 -0.25 0 0.25 0 0 0.25 0.25 0 0 -0.25 0 0 0 0 0 0.25 0 -0.25 -0.25 0 -0.25 0 0 -0.25 0.25 0.25 0.25 -0.25 0.25 0.25 0 0.25 0.25 0.25 0.25 0 -0.25 0.25 0 0 0.25 0 0.25 0.25 -0.25 -0.25 0.25 -0.25 0 0.25 -0.25 0.25 </DataArray>
</Points>
<Cells>
<DataArray type="Int32" Name="connectivity" format="ascii">
44 16 3 17 98 86 41 89 98 86 41 89 99 87 42 90 99 87 42 90 100 88 43 91 100 88 43 91 55 28 7 29 45 44 17 18 101 98 89 92 101 98 89 92 102 99 90 93 102 99 90 93 103 100 91 94 103 100 91 94 54 55 29 30 46 45 18 19 104 101 92 95 104 101 92 95 105 102 93 96 105 102 93 96 106 103 94 97 106 103 94 97 53 54 30 31 8 46 19 0 62 104 95 32 62 104 95 32 63 105 96 33 63 105 96 33 64 106 97 34 64 106 97 34 20 53 31 4 47 15 16 44 107 83 86 98 107 83 86 98 108 84 87 99 108 84 87 99 109 85 88 100 109 85 88 100 58 27 28 55 48 47 44 45 110 107 98 101 110 107 98 101 111 108 99 102 111 108 99 102 112 109 100 103 112 109 100 103 57 58 55 54 49 48 45 46 113 110 101 104 113 110 101 104 114 111 102 105 114 111 102 105 115 112 103 106 115 112 103 106 56 57 54 53 9 49 46 8 65 113 104 62 65 113 104 62 66 114 105 63 66 114 105 63 67 115 106 64 67 115 106 64 21 56 53 20 50 14 15 47 116 80 83 107 116 80 83 107 117 81 84 108 117 81 84 108 118 82 85 109 118 82 85 109 61 26 27 58 51 50 47 48 119 116 107 110 119 116 107 110 120 117 108 111 120 117 108 111 121 118 109 112 121 118 109 112 60 61 58 57 52 51 48 49 122 119 110 113 122 119 110 113 123 120 111 114 123 120 111 114 124 121 112 115 124 121 112 115 59 60 57 56 10 52 49 9 68 122 113 65 68 122 113 65 69 123 114 66 69 123 114 66 70 124 115 67 70 124 115 67 22 59 56 21 13 2 14 50 77 38 80 116 77 38 80 116 78 39 81 117 78 39 81 117 79 40 82 118 79 40 82 118 25 6 26 61 12 13 50 51 74 77 116 119 74 77 116 119 75 78 117 120 75 78 117 120 76 79 118 121 76 79 118 121 24 25 61 60 11 12 51 52 71 74 119 122 71 74 119 122 72 75 120 123 72 75 120 123 73 76 121 124 73 76 121 124 23 24 60 59 1 11 52 10 35 71 122 68 35 71 122 68 36 72 123 69 36 72 123 69 37 73 124 70 37 73 124 70 5 23 59 22 </DataArray>
<DataArray type="Int32" Name="offsets" format="ascii">
8 16 24 32 40 48 56 64 72 80 88 96 104 112 120 128 136 144 152 160 168 176 184 192 200 208 216 224 232 240 248 256 264 272 280 288 296 304 312 320 328 336 344 352 360 368 376 384 392 400 408 416 424 432 440 448 456 464 472 480 488 496 504 512 </DataArray>
<DataArray type="UInt8" Name="types" format="ascii">
12 12 12 12 12 12 12 12 12 12 12 12 12 12 12 12 12 12 12 12 12 12 12 12 12 12 12 12 12 12 12 12 12 12 12 12 12 12 12 12 12 12 12 12 12 12 12 12 12 12 12 12 12 12 12 12 12 12 12 12 12 12 12 12 </DataArray>
</Cells>
<CellData Scalars="scalars">
<DataArray type="Float32" Name="number_density" format="ascii">
7.584e+12 7.8976e+12 7.1168e+12 5.888e+12 7.7376e+12 9.344e+12 8.064e+12 6.496e+12 6.8288e+12 8.9536e+12 8.7616e+12 6.4064e+12 6.4512e+12 6.912e+12 7.1296e+12 6.6624e+12 8.8832e+12 1.18976e+13 9.8368e+12 6.8608e+12 9.8624e+12 2.25728e+13 2.11648e+13 8.7232e+12 8.672e+12 1.91424e+13 2.01472e+13 9.4208e+12 6.976e+12 9.5296e+12 9.8816e+12 7.7312e+12 8.5248e+12 1.10656e+13 1.05664e+13 7.7184e+12 9.9136e+12 2.24704e+13 2.2112e+13 1.0528e+13 1.00096e+13 2.04224e+13 2.19392e+13 1.14176e+13 6.976e+12 9.408e+12 1.0112e+13 7.9808e+12 6.88e+12 7.6928e+12 8.2624e+12 7.2192e+12 7.6928e+12 9.4272e+12 9.7088e+12 7.8592e+12 7.36e+12 1.01568e+13 1.02656e+13 8.1024e+12 6.5408e+12 7.4688e+12 7.488e+12 7.1744e+12 </DataArray>
<DataArray type="Float32" Name="potential" format="ascii">
0 0 0 0 0 0 0 0 0 0 0 0 0 0 0 0 0 0 0 0 0 0 0 0 0 0 0 0 0 0 0 0 0 0 0 0 0 0 0 0 0 0 0 0 0 0 0 0 0 0 0 0 0 0 0 0 0 0 0 0 0 0 0 0 </DataArray>
<DataArray type="Float32" Name="temperature" format="ascii">
688.478 729.557 684.534 610.618 754.459 963.548 923.393 728.131 665.45 960.557 965.676 727.436 603.362 731.891 719.273 623.283 761.022 992.235 941.546 700.984 938.392 1509.74 1398.82 899.108 889.22 1338.38 1426.99 973.299 686.544 910.731 976.476 733.382 729.765 977.914 1021.65 756.331 938.905 1483.36 1508.59 992.515 863.795 1381.31 1496.04 1001.86 716.418 949.881 979.194 735.142 621.664 689.43 698.57 596.691 689.342 914.3 939.666 756.832 739.211 890.627 943.481 740.27 614.359 720.187 736.13 608.374 </DataArray>
<DataArray type="Float32" Name="velocity" format="ascii">
365.704 547.616 700.571 592.746 550.413 755.607 937.935 781.337 683.009 848.272 911.803 721.998 543.834 693.071 680.124 520.282 425.742 514.361 764.411 711.957 660.22 580.399 830.595 894.152 848.339 866.93 841.19 824.393 685.881 830.956 790.36 635.834 488.126 560.817 629.982 586.883 626.609 463.235 502.795 690.601 739.324 702.043 581.844 648.034 621.365 739.863 671.706 531.049 432.55 564.322 565.243 438.043 562.518 707.766 687.903 560.172 573.231 695.526 664.796 532.017 434.468 571.387 548.839 430.365 </DataArray>
<DataArray type="Float32" Name="E_field" format="ascii">
0 0 0 0 0 0 0 0 0 0 0 0 0 0 0 0 0 0 0 0 0 0 0 0 0 0 0 0 0 0 0 0 0 0 0 0 0 0 0 0 0 0 0 0 0 0 0 0 0 0 0 0 0 0 0 0 0 0 0 0 0 0 0 0 </DataArray>
</CellData>
<PointData Scalars="number_density">
<DataArray type="Float32" Name="number_density" format="ascii">
6.4512e+12 6.5408e+12 6.88e+12 7.584e+12 6.6624e+12 7.1744e+12 7.2192e+12 5.888e+12 6.7136e+12 6.976e+12 6.7584e+12 6.9504e+12 7.5264e+12 7.2864e+12 7.7024e+12 8.704e+12 8.2336e+12 7.6608e+12 7.2832e+12 6.64e+12 7.1968e+12 7.856e+12 7.5776e+12 7.6384e+12 7.9808e+12 7.5392e+12 7.4688e+12 7.2896e+12 6.3744e+12 6.192e+12 6.4512e+12 6.5344e+12 6.6816e+12 7.0208e+12 6.896e+12 7.0048e+12 7.4784e+12 7.3312e+12 7.2864e+12 7.9776e+12 7.7408e+12 7.7408e+12 7.5072e+12 6.5024e+12 8.5168e+12 8.2752e+12 7.232e+12 9.296e+12 9.6144e+12 8.1584e+12 8.2528e+12 8.744e+12 7.7216e+12 7.5552e+12 7.7616e+12 6.992e+12 9.1376e+12 1.00224e+13 8.4576e+12 8.6688e+12 9.4768e+12 8.3312e+12 7.4672e+12 8.3632e+12 7.8512e+12 8.2224e+12 9.7328e+12 8.9264e+12 7.5984e+12 8.6192e+12 8.1888e+12 7.8816e+12 8.8448e+12 8.2576e+12 8.6592e+12 9.8896e+12 8.984e+12 7.9232e+12 8.7728e+12 8.2624e+12 8.5408e+12 9.3968e+12 8.4416e+12 1.00928e+13 1.08416e+13 8.7456e+12 9.0656e+12 9.1872e+12 7.4256e+12 8.1408e+12 8.1056e+12 6.8912e+12 8.216e+12 8.7808e+12 7.432e+12 7.2864e+12 7.9392e+12 7.24e+12 1.07224e+13 1.22368e+13 9.2688e+12 1.16392e+13 1.47688e+13 1.1148e+13 9.1832e+12 1.13072e+13 9.5176e+12 1.31488e+13 1.64608e+13 1.21888e+13 1.53832e+13 2.12464e+13 1.56816e+13 1.1392e+13 1.50728e+13 1.23288e+13 1.04584e+13 1.26632e+13 1.04968e+13 1.21816e+13 1.58128e+13 1.27416e+13 9.7928e+12 1.21576e+13 1.056e+13 </DataArray>
<DataArray type="Float32" Name="potential" format="ascii">
0 0 0 0 0 0 0 0 0 0 0 0 0 0 0 0 0 0 0 0 0 0 0 0 0 0 0 0 0 0 0 0 0 0 0 0 0 0 0 0 0 0 0 0 0 0 0 0 0 0 0 0 0 0 0 0 0 0 0 0 0 0 0 0 0 0 0 0 0 0 0 0 0 0 0 0 0 0 0 0 0 0 0 0 0 0 0 0 0 0 0 0 0 0 0 0 0 0 0 0 0 0 0 0 0 0 0 0 0 0 0 0 0 0 0 0 0 0 0 0 0 0 0 0 0 </DataArray>
<DataArray type="Float32" Name="temperature" format="ascii">
603.362 614.359 621.664 688.478 623.283 608.374 596.691 610.618 644.953 701.481 665.388 676.785 714.276 655.503 675.715 745.394 724.75 721.469 709.955 634.406 678.332 734.262 671.758 674.322 748.551 676.761 676.511 728.657 655.801 669.374 727.783 675.359 667.627 725.582 671.278 667.273 728.159 672.252 655.547 694 647.63 709.018 707.046 647.576 785.588 811.88 711.144 842.021 907.578 788.994 744.919 807.813 733.445 764.35 831.993 734.71 860.92 966.694 837.234 771.41 872.868 775.592 733.132 834.593 763.104 815.893 954.07 856.049 750.211 846.348 764.71 741.096 822.606 757.064 808.37 922.019 845.062 728.684 810.492 747.94 754.693 846.891 768.311 865.234 983.337 855.128 792.823 836.968 734.42 784.011 825.258 736.669 836.004 953.294 836.159 740.315 844.349 758.917 917.179 1017.92 860.892 1002.47 1185.89 1005.36 848.266 1003.75 893.227 1041.42 1229.23 1027.44 1167.89 1442.9 1212.15 967.034 1182.37 1040.3 880.585 1029.18 908.855 987.606 1194.67 1047.41 859.473 1012.11 905.06 </DataArray>
<DataArray type="Float32" Name="velocity" format="ascii">
543.834 434.468 432.55 365.704 520.282 430.365 438.043 592.746 611.431 630.749 517.024 498.462 548.319 490.474 454.039 419.246 385.163 446.547 605.284 611.462 574.763 544.478 469.863 474.063 515.785 492.811 500.022 617.103 645.41 684.333 724.889 613.915 611.643 658.848 589.701 500.059 535.971 484.21 494.537 540.095 493.362 446.296 597.663 643.716 477.208 659.406 681.962 478.724 637.883 689.685 507.081 585.446 573.574 658.968 764.398 732.687 592.912 655.566 663.564 506.551 546.33 544.229 675.778 704.664 639.305 680.05 666.953 599.89 571.788 578.862 521.088 555.683 582.7 525.553 595.471 605.818 558.23 550.195 580.281 539.918 495.626 528.047 530.586 418.458 484.516 617.836 433.983 581.273 679.049 527.492 683.125 744.21 670.726 768.107 797.929 677.652 731.996 688.019 499.75 615.526 754.504 663.558 675.802 778.983 726.014 733.425 706.149 404.132 347.223 609.847 530.912 229.012 544.09 691.045 595.638 589.523 514.843 482.947 536.054 559.815 435.204 502.487 600.511 561.378 526.228 </DataArray>
<DataArray type="Float32" Name="E_field" format="ascii">
0 0 0 0 0 0 0 0 0 0 0 0 0 0 0 0 0 0 0 0 0 0 0 0 0 0 0 0 0 0 0 0 0 0 0 0 0 0 0 0 0 0 0 0 0 0 0 0 0 0 0 0 0 0 0 0 0 0 0 0 0 0 0 0 0 0 0 0 0 0 0 0 0 0 0 0 0 0 0 0 0 0 0 0 0 0 0 0 0 0 0 0 0 0 0 0 0 0 0 0 0 0 0 0 0 0 0 0 0 0 0 0 0 0 0 0 0 0 0 0 0 0 0 0 0 </DataArray>
</PointData>
</Piece>
</UnstructuredGrid>
</VTKFile>
