<VTKFile type="UnstructuredGrid" version="0.1" byte_order="LittleEndian">
<UnstructuredGrid>
<Piece NumberOfPoints="125" NumberOfCells="64">
<Points>
<DataArray type="Float32" NumberOfComponents="3" format="ascii">
-0.5 -0.5 -0.5 0.5 -0.5 -0.5 0.5 0.5 -0.5 -0.5 0.5 -0.5 -0.5 -0.5 0.5 0.5 -0.5 0.5 0.5 0.5 0.5 -0.5 0.5 0.5 -0.25 -0.5 -0.5 0 -0.5 -0.5 0.25 -0.5 -0.5 0.5 -0.25 -0.5 0.5 0 -0.5 0.5 0.25 -0.5 0.25 0.5 -0.5 0 0.5 -0.5 -0.25 0.5 -0.5 -0.5 0.25 -0.5 -0.5 0 -0.5 -0.5 -0.25 -0.5 -0.25 -0.5 0.5 0 -0.5 0.5 0.25 -0.5 0.5 0.5 -0.25 0.5 0.5 0 0.5 0.5 0.25 0.5 0.25 0.5 0.5 0 0.5 0.5 -0.25 0.5 0.5 -0.5 0.25 0.5 -0.5 0 0.5 -0.5 -0.25 0.5 -0.5 -0.5 -0.25 -0.5 -0.5 0 -0.5 -0.5 0.25 0.5 -0.5 -0.25 0.5 -0.5 0 0.5 -0.5 0.25 0.5 0.5 -0.25 0.5 0.5 0 0.5 0.5 0.25 -0.5 0.5 -0.25 -0.5 0.5 0 -0.5 0.5 0.25 -0.25 0.25 -0.5 -0.25 0 -0.5 -0.25 -0.25 -0.5 0 0.25 -0.5 0 0 -0.5 0 -0.25 -0.5 0.25 0.25 -0.5 0.25 0 -0.5 0.25 -0.25 -0.5 -0.25 -0.25 0.5 -0.25 0 0.5 -0.25 0.25 0.5 0 -0.25 0.5 0 0 0.5 0 0.25 0.5 0.25 -0.25 0.5 0.25 0 0.5 0.25 0.25 0.5 -0.25 -0.5 -0.25 -0.25 -0.5 0 -0.25 -0.5 0.25 0 -0.5 -0.25 0 -0.5 0 0 -0.5 0.25 0.25 -0.5 -0.25 0.25 -0.5 0 0.25 -0.5 0.25 0.5 -0.25 -0.25 0.5 -0.25 0 0.5 -0.25 0.25 0.5 0 -0.25 0.5 0 0 0.5 0 0.25 0.5 0.25 -0.25 0.5 0.25 0 0.5 0.25 0.25 0.25 0.5 -0.25 0.25 0.5 0 0.25 0.5 0.25 0 0.5 -0.25 0 0.5 0 0 0.5 0.25 -0.25 0.5 -0.25 -0.25 0.5 0 -0.25 0.5 0.25 -0.5 0.25 -0.25 -0.5 0.25 0 -0.5 0.25 0.25 -0.5 0 -0.25 -0.5 0 0 -0.5 0 0.25 -0.5 -0.25 -0.25 -0.5 -0.25 0 -0.5 -0.25 0.25 -0.25 0.25 -0.25 -0.25 0.25 0 -0.25 0.25 0.25 -0.25 0 -0.25 -0.25 0 0 -0.25 0 0.25 -0.25 -0.25 -0.25 -0.25 -0.25 0 -0.25 -0.25 0.25 0 0.25 -0.25 0 0.25 0 0 0.25 0.25 0 0 -0.25 0 0 0 0 0 0.25 0 -0.25 -0.25 0 -0.25 0 0 -0.25 0.25 0.25 0.25 -0.25 0.25 0.25 0 0.25 0.25 0.25 0.25 0 -0.25 0.25 0 0 0.25 0 0.25 0.25 -0.25 -0.25 0.25 -0.25 0 0.25 -0.25 0.25 </DataArray>
</Points>
<Cells>
<DataArray type="Int32" Name="connectivity" format="ascii">
44 16 3 17 98 86 41 89 98 86 41 89 99 87 42 90 99 87 42 90 100 88 43 91 100 88 43 91 55 28 7 29 45 44 17 18 101 98 89 92 101 98 89 92 102 99 90 93 102 99 90 93 103 100 91 94 103 100 91 94 54 55 29 30 46 45 18 19 104 101 92 95 104 101 92 95 105 102 93 96 105 102 93 96 106 103 94 97 106 103 94 97 53 54 30 31 8 46 19 0 62 104 95 32 62 104 95 32 63 105 96 33 63 105 96 33 64 106 97 34 64 106 97 34 20 53 31 4 47 15 16 44 107 83 86 98 107 83 86 98 108 84 87 99 108 84 87 99 109 85 88 100 109 85 88 100 58 27 28 55 48 47 44 45 110 107 98 101 110 107 98 101 111 108 99 102 111 108 99 102 112 109 100 103 112 109 100 103 57 58 55 54 49 48 45 46 113 110 101 104 113 110 101 104 114 111 102 105 114 111 102 105 115 112 103 106 115 112 103 106 56 57 54 53 9 49 46 8 65 113 104 62 65 113 104 62 66 114 105 63 66 114 105 63 67 115 106 64 67 115 106 64 21 56 53 20 50 14 15 47 116 80 83 107 116 80 83 107 117 81 84 108 117 81 84 108 118 82 85 109 118 82 85 109 61 26 27 58 51 50 47 48 119 116 107 110 119 116 107 110 120 117 108 111 120 117 108 111 121 118 109 112 121 118 109 112 60 61 58 57 52 51 48 49 122 119 110 113 122 119 110 113 123 120 111 114 123 120 111 114 124 121 112 115 124 121 112 115 59 60 57 56 10 52 49 9 68 122 113 65 68 122 113 65 69 123 114 66 69 123 114 66 70 124 115 67 70 124 115 67 22 59 56 21 13 2 14 50 77 38 80 116 77 38 80 116 78 39 81 117 78 39 81 117 79 40 82 118 79 40 82 118 25 6 26 61 12 13 50 51 74 77 116 119 74 77 116 119 75 78 117 120 75 78 117 120 76 79 118 121 76 79 118 121 24 25 61 60 11 12 51 52 71 74 119 122 71 74 119 122 72 75 120 123 72 75 120 123 73 76 121 124 73 76 121 124 23 24 60 59 1 11 52 10 35 71 122 68 35 71 122 68 36 72 123 69 36 72 123 69 37 73 124 70 37 73 124 70 5 23 59 22 </DataArray>
<DataArray type="Int32" Name="offsets" format="ascii">
8 16 24 32 40 48 56 64 72 80 88 96 104 112 120 128 136 144 152 160 168 176 184 192 200 208 216 224 232 240 248 256 264 272 280 288 296 304 312 320 328 336 344 352 360 368 376 384 392 400 408 416 424 432 440 448 456 464 472 480 488 496 504 512 </DataArray>
<DataArray type="UInt8" Name="types" format="ascii">
12 12 12 12 12 12 12 12 12 12 12 12 12 12 12 12 12 12 12 12 12 12 12 12 12 12 12 12 12 12 12 12 12 12 12 12 12 12 12 12 12 12 12 12 12 12 12 12 12 12 12 12 12 12 12 12 12 12 12 12 12 12 12 12 </DataArray>
</Cells>
<CellData Scalars="scalars">
<DataArray type="Float32" Name="number_density" format="ascii">
5.4912e+12 5.8368e+12 4.1344e+12 3.0912e+12 5.216e+12 7.0528e+12 5.7344e+12 3.7824e+12 4.1984e+12 6.6496e+12 5.9328e+12 3.9552e+12 3.808e+12 4.3136e+12 4.4416e+12 3.9296e+12 7.5328e+12 1.28384e+13 8.5184e+12 4.2688e+12 8.6272e+12 3.85664e+13 3.01824e+13 6.4576e+12 7.2384e+12 2.6816e+13 2.98304e+13 7.9104e+12 4.2112e+12 7.5392e+12 8.7616e+12 5.5552e+12 6.8928e+12 1.17184e+13 1.02208e+13 5.3888e+12 8.9856e+12 4.11136e+13 4.09664e+13 9.4336e+12 8.3136e+12 3.24544e+13 3.82976e+13 1.01504e+13 4.5184e+12 7.5072e+12 9.1392e+12 5.7408e+12 4.448e+12 5.3504e+12 5.8048e+12 4.5888e+12 5.2928e+12 8.4672e+12 8.3584e+12 5.504e+12 5.0816e+12 8.736e+12 9.4528e+12 6.1696e+12 4.2304e+12 5.3184e+12 5.152e+12 4.7808e+12 </DataArray>
<DataArray type="Float32" Name="potential" format="ascii">
0 0 0 0 0 0 0 0 0 0 0 0 0 0 0 0 0 0 0 0 0 0 0 0 0 0 0 0 0 0 0 0 0 0 0 0 0 0 0 0 0 0 0 0 0 0 0 0 0 0 0 0 0 0 0 0 0 0 0 0 0 0 0 0 </DataArray>
<DataArray type="Float32" Name="temperature" format="ascii">
617.401 822.764 711.209 508.478 731.371 1276.15 1097.09 709.658 678.1 1147.67 1170.29 778.649 537.589 749.182 785.526 569.36 823.975 1329.48 1212.5 747.975 1227.4 2337.31 2242.95 1143.85 1007.14 2059.7 2129 1286.91 699.726 1040.37 1196.78 767.842 802.638 1256.27 1322.4 791.971 1245.57 2421.92 2458.36 1285.36 1019.4 2185.92 2336.82 1344.13 759.566 1179.55 1318.86 826.218 560.631 726.096 755.037 541.376 726.554 1134.7 1244.07 792.938 751.377 1025.44 1225.76 770.748 562.305 746.532 768.135 559.276 </DataArray>
<DataArray type="Float32" Name="velocity" format="ascii">
466.714 663.728 881.265 755.716 697.275 905.443 1176.86 991.935 881.174 1070.61 1125.14 922.399 694.978 881.101 846.722 653.775 562.23 657.304 955.01 886.657 815.432 677.503 944.582 1127.58 1082.91 1049.96 1046.72 1021.03 890.414 1073.32 1017.14 809.66 612.561 702.26 765.626 737.418 787.275 438.277 508.724 856.268 960.451 807.708 682.748 797.857 779.298 920.909 821.39 684.208 548.87 736.127 706.716 554.241 692.736 861.625 821.147 698.88 738.231 909.815 843.993 691.557 550.423 736.016 681.06 527.866 </DataArray>
<DataArray type="Float32" Name="E_field" format="ascii">
0 0 0 0 0 0 0 0 0 0 0 0 0 0 0 0 0 0 0 0 0 0 0 0 0 0 0 0 0 0 0 0 0 0 0 0 0 0 0 0 0 0 0 0 0 0 0 0 0 0 0 0 0 0 0 0 0 0 0 0 0 0 0 0 </DataArray>
</CellData>
<PointData Scalars="number_density">
<DataArray type="Float32" Name="number_density" format="ascii">
3.808e+12 4.2304e+12 4.448e+12 5.4912e+12 3.9296e+12 4.7808e+12 4.5888e+12 3.0912e+12 4.0096e+12 4.3648e+12 4.3744e+12 4.656e+12 5.1872e+12 4.8704e+12 5.6704e+12 7.2128e+12 6.512e+12 5.3536e+12 4.7072e+12 4.0032e+12 4.7424e+12 5.648e+12 5.2608e+12 5.4752e+12 5.8368e+12 5.0464e+12 4.9888e+12 4.8288e+12 3.68e+12 3.4368e+12 3.8688e+12 3.9424e+12 4.0608e+12 4.3776e+12 4.1856e+12 4.7744e+12 5.2352e+12 4.9664e+12 4.8992e+12 5.5776e+12 5.1968e+12 5.664e+12 4.9856e+12 3.6128e+12 6.7168e+12 6.32e+12 4.864e+12 8.0096e+12 8.2912e+12 6.0704e+12 6.4048e+12 6.9184e+12 5.536e+12 5.3376e+12 5.5264e+12 4.4e+12 7.3392e+12 8.488e+12 6.3872e+12 6.7104e+12 7.8144e+12 6.2288e+12 4.968e+12 6.264e+12 5.672e+12 5.944e+12 8.2368e+12 7.2992e+12 5.3936e+12 6.7792e+12 6.2032e+12 5.8416e+12 7.1648e+12 6.3888e+12 6.8944e+12 8.7536e+12 7.3712e+12 5.8896e+12 6.9952e+12 6.064e+12 7.1024e+12 8.2736e+12 6.5008e+12 9.7456e+12 1.0824e+13 7.0992e+12 7.9248e+12 7.832e+12 5.0032e+12 5.8992e+12 5.6896e+12 4.1856e+12 5.7792e+12 6.3424e+12 4.8512e+12 4.7424e+12 5.3344e+12 4.5648e+12 1.13952e+13 1.4108e+13 8.2712e+12 1.30456e+13 1.88456e+13 1.17232e+13 8.0968e+12 1.17856e+13 8.7896e+12 1.70344e+13 2.42656e+13 1.44296e+13 2.15144e+13 3.47784e+13 2.16536e+13 1.23248e+13 2.00432e+13 1.44232e+13 1.15336e+13 1.65e+13 1.12832e+13 1.48056e+13 2.34808e+13 1.60416e+13 9.52e+12 1.45072e+13 1.11104e+13 </DataArray>
<DataArray type="Float32" Name="potential" format="ascii">
0 0 0 0 0 0 0 0 0 0 0 0 0 0 0 0 0 0 0 0 0 0 0 0 0 0 0 0 0 0 0 0 0 0 0 0 0 0 0 0 0 0 0 0 0 0 0 0 0 0 0 0 0 0 0 0 0 0 0 0 0 0 0 0 0 0 0 0 0 0 0 0 0 0 0 0 0 0 0 0 0 0 0 0 0 0 0 0 0 0 0 0 0 0 0 0 0 0 0 0 0 0 0 0 0 0 0 0 0 0 0 0 0 0 0 0 0 0 0 0 0 0 0 0 0 </DataArray>
<DataArray type="Float32" Name="temperature" format="ascii">
537.589 562.305 560.631 617.401 569.36 559.276 541.376 508.478 618.658 729.646 660.936 656.841 738.965 643.593 681.635 813.306 720.688 674.386 704.736 607.845 668.601 797.03 692.747 665.012 781.843 667.157 666.673 769.973 628.226 609.068 744.153 674.004 643.386 767.354 677.443 654.418 757.334 663.706 643.363 740.566 648.207 720.083 766.987 609.844 850.036 911.002 730.638 1024.9 1124.88 871.457 833.849 935.725 773.162 850.689 979.765 777.489 1056.27 1265.06 992.287 875.092 1048.29 852.91 756.716 942.964 829.877 919.802 1183.89 1027.42 811.988 1003.27 868.122 771.415 941.469 830.981 909.518 1157.49 1008.38 786.994 964.975 833.355 836.408 1014.95 852.697 1053.09 1280.16 1018.71 898.405 1018.99 795.041 861.922 976.805 756.61 958.322 1172.8 938.922 778.134 963.165 825.956 1145.73 1378.68 1046.71 1308.1 1682.52 1319.8 989.934 1284.81 1085.54 1430.57 1822.65 1400.67 1688.05 2271.5 1778.42 1243.92 1680.87 1400.82 1109.3 1414.86 1148.94 1313.86 1754.13 1432.27 1028.76 1348.38 1143.74 </DataArray>
<DataArray type="Float32" Name="velocity" format="ascii">
694.978 550.423 548.87 466.714 653.775 527.866 554.241 755.716 789.992 792.005 654.476 642.611 676.694 613.682 575.792 515.949 509.557 571.747 765.435 787.24 730.325 684.259 592.022 602.705 645.021 621.592 636.636 745.847 815.921 871.684 911.395 778.763 782.967 809.942 743.564 639.011 665.626 600.67 639.707 674.57 623.405 552.355 722.455 816.938 615.741 832.379 881.968 583.832 777.749 871.347 639.222 735.603 743.948 837.804 952.319 931.873 735.803 769.839 812.954 645.388 673.414 692.371 874.594 889.386 820.792 849.907 800.454 750.064 727.266 708.856 654.736 724.904 734.811 670.999 741.687 708.625 683.555 695.993 705.344 676.151 637.935 651.467 671.248 524.801 558.034 743.38 563.708 714.803 860.361 656.072 825.075 945.355 835.744 902.605 993.675 872.865 894.387 867.655 635.587 748.722 949.109 827.042 807.239 962.141 935.478 917.586 902.984 490.832 390.142 727.814 637.767 327.609 643.559 860.825 729.166 743.172 638.824 565.557 667.456 682.886 483.034 604.796 771.128 689.903 668.817 </DataArray>
<DataArray type="Float32" Name="E_field" format="ascii">
0 0 0 0 0 0 0 0 0 0 0 0 0 0 0 0 0 0 0 0 0 0 0 0 0 0 0 0 0 0 0 0 0 0 0 0 0 0 0 0 0 0 0 0 0 0 0 0 0 0 0 0 0 0 0 0 0 0 0 0 0 0 0 0 0 0 0 0 0 0 0 0 0 0 0 0 0 0 0 0 0 0 0 0 0 0 0 0 0 0 0 0 0 0 0 0 0 0 0 0 0 0 0 0 0 0 0 0 0 0 0 0 0 0 0 0 0 0 0 0 0 0 0 0 0 </DataArray>
</PointData>
</Piece>
</UnstructuredGrid>
</VTKFile>
