<VTKFile type="UnstructuredGrid" version="0.1" byte_order="LittleEndian">
<UnstructuredGrid>
<Piece NumberOfPoints="125" NumberOfCells="64">
<Points>
<DataArray type="Float32" NumberOfComponents="3" format="ascii">
-0.5 -0.5 -0.5 0.5 -0.5 -0.5 0.5 0.5 -0.5 -0.5 0.5 -0.5 -0.5 -0.5 0.5 0.5 -0.5 0.5 0.5 0.5 0.5 -0.5 0.5 0.5 -0.25 -0.5 -0.5 0 -0.5 -0.5 0.25 -0.5 -0.5 0.5 -0.25 -0.5 0.5 0 -0.5 0.5 0.25 -0.5 0.25 0.5 -0.5 0 0.5 -0.5 -0.25 0.5 -0.5 -0.5 0.25 -0.5 -0.5 0 -0.5 -0.5 -0.25 -0.5 -0.25 -0.5 0.5 0 -0.5 0.5 0.25 -0.5 0.5 0.5 -0.25 0.5 0.5 0 0.5 0.5 0.25 0.5 0.25 0.5 0.5 0 0.5 0.5 -0.25 0.5 0.5 -0.5 0.25 0.5 -0.5 0 0.5 -0.5 -0.25 0.5 -0.5 -0.5 -0.25 -0.5 -0.5 0 -0.5 -0.5 0.25 0.5 -0.5 -0.25 0.5 -0.5 0 0.5 -0.5 0.25 0.5 0.5 -0.25 0.5 0.5 0 0.5 0.5 0.25 -0.5 0.5 -0.25 -0.5 0.5 0 -0.5 0.5 0.25 -0.25 0.25 -0.5 -0.25 0 -0.5 -0.25 -0.25 -0.5 0 0.25 -0.5 0 0 -0.5 0 -0.25 -0.5 0.25 0.25 -0.5 0.25 0 -0.5 0.25 -0.25 -0.5 -0.25 -0.25 0.5 -0.25 0 0.5 -0.25 0.25 0.5 0 -0.25 0.5 0 0 0.5 0 0.25 0.5 0.25 -0.25 0.5 0.25 0 0.5 0.25 0.25 0.5 -0.25 -0.5 -0.25 -0.25 -0.5 0 -0.25 -0.5 0.25 0 -0.5 -0.25 0 -0.5 0 0 -0.5 0.25 0.25 -0.5 -0.25 0.25 -0.5 0 0.25 -0.5 0.25 0.5 -0.25 -0.25 0.5 -0.25 0 0.5 -0.25 0.25 0.5 0 -0.25 0.5 0 0 0.5 0 0.25 0.5 0.25 -0.25 0.5 0.25 0 0.5 0.25 0.25 0.25 0.5 -0.25 0.25 0.5 0 0.25 0.5 0.25 0 0.5 -0.25 0 0.5 0 0 0.5 0.25 -0.25 0.5 -0.25 -0.25 0.5 0 -0.25 0.5 0.25 -0.5 0.25 -0.25 -0.5 0.25 0 -0.5 0.25 0.25 -0.5 0 -0.25 -0.5 0 0 -0.5 0 0.25 -0.5 -0.25 -0.25 -0.5 -0.25 0 -0.5 -0.25 0.25 -0.25 0.25 -0.25 -0.25 0.25 0 -0.25 0.25 0.25 -0.25 0 -0.25 -0.25 0 0 -0.25 0 0.25 -0.25 -0.25 -0.25 -0.25 -0.25 0 -0.25 -0.25 0.25 0 0.25 -0.25 0 0.25 0 0 0.25 0.25 0 0 -0.25 0 0 0 0 0 0.25 0 -0.25 -0.25 0 -0.25 0 0 -0.25 0.25 0.25 0.25 -0.25 0.25 0.25 0 0.25 0.25 0.25 0.25 0 -0.25 0.25 0 0 0.25 0 0.25 0.25 -0.25 -0.25 0.25 -0.25 0 0.25 -0.25 0.25 </DataArray>
</Points>
<Cells>
<DataArray type="Int32" Name="connectivity" format="ascii">
44 16 3 17 98 86 41 89 98 86 41 89 99 87 42 90 99 87 42 90 100 88 43 91 100 88 43 91 55 28 7 29 45 44 17 18 101 98 89 92 101 98 89 92 102 99 90 93 102 99 90 93 103 100 91 94 103 100 91 94 54 55 29 30 46 45 18 19 104 101 92 95 104 101 92 95 105 102 93 96 105 102 93 96 106 103 94 97 106 103 94 97 53 54 30 31 8 46 19 0 62 104 95 32 62 104 95 32 63 105 96 33 63 105 96 33 64 106 97 34 64 106 97 34 20 53 31 4 47 15 16 44 107 83 86 98 107 83 86 98 108 84 87 99 108 84 87 99 109 85 88 100 109 85 88 100 58 27 28 55 48 47 44 45 110 107 98 101 110 107 98 101 111 108 99 102 111 108 99 102 112 109 100 103 112 109 100 103 57 58 55 54 49 48 45 46 113 110 101 104 113 110 101 104 114 111 102 105 114 111 102 105 115 112 103 106 115 112 103 106 56 57 54 53 9 49 46 8 65 113 104 62 65 113 104 62 66 114 105 63 66 114 105 63 67 115 106 64 67 115 106 64 21 56 53 20 50 14 15 47 116 80 83 107 116 80 83 107 117 81 84 108 117 81 84 108 118 82 85 109 118 82 85 109 61 26 27 58 51 50 47 48 119 116 107 110 119 116 107 110 120 117 108 111 120 117 108 111 121 118 109 112 121 118 109 112 60 61 58 57 52 51 48 49 122 119 110 113 122 119 110 113 123 120 111 114 123 120 111 114 124 121 112 115 124 121 112 115 59 60 57 56 10 52 49 9 68 122 113 65 68 122 113 65 69 123 114 66 69 123 114 66 70 124 115 67 70 124 115 67 22 59 56 21 13 2 14 50 77 38 80 116 77 38 80 116 78 39 81 117 78 39 81 117 79 40 82 118 79 40 82 118 25 6 26 61 12 13 50 51 74 77 116 119 74 77 116 119 75 78 117 120 75 78 117 120 76 79 118 121 76 79 118 121 24 25 61 60 11 12 51 52 71 74 119 122 71 74 119 122 72 75 120 123 72 75 120 123 73 76 121 124 73 76 121 124 23 24 60 59 1 11 52 10 35 71 122 68 35 71 122 68 36 72 123 69 36 72 123 69 37 73 124 70 37 73 124 70 5 23 59 22 </DataArray>
<DataArray type="Int32" Name="offsets" format="ascii">
8 16 24 32 40 48 56 64 72 80 88 96 104 112 120 128 136 144 152 160 168 176 184 192 200 208 216 224 232 240 248 256 264 272 280 288 296 304 312 320 328 336 344 352 360 368 376 384 392 400 408 416 424 432 440 448 456 464 472 480 488 496 504 512 </DataArray>
<DataArray type="UInt8" Name="types" format="ascii">
12 12 12 12 12 12 12 12 12 12 12 12 12 12 12 12 12 12 12 12 12 12 12 12 12 12 12 12 12 12 12 12 12 12 12 12 12 12 12 12 12 12 12 12 12 12 12 12 12 12 12 12 12 12 12 12 12 12 12 12 12 12 12 12 </DataArray>
</Cells>
<CellData Scalars="scalars">
<DataArray type="Float32" Name="number_density" format="ascii">
8.0128e+12 8.5632e+12 7.872e+12 6.816e+12 8.4032e+12 9.6896e+12 8.8384e+12 7.3536e+12 7.5904e+12 9.3696e+12 9.0624e+12 7.3984e+12 7.4368e+12 7.6928e+12 8.0704e+12 7.4368e+12 9.2864e+12 1.12832e+13 1.01824e+13 7.6864e+12 1.01056e+13 1.83552e+13 1.78176e+13 9.2544e+12 9.1456e+12 1.6832e+13 1.72416e+13 9.7984e+12 7.7568e+12 9.8176e+12 1.00928e+13 8.288e+12 8.9216e+12 1.1008e+13 1.04128e+13 8.3584e+12 1.00992e+13 1.87584e+13 1.80992e+13 1.072e+13 1.02144e+13 1.73504e+13 1.83552e+13 1.1008e+13 7.6544e+12 9.8944e+12 1.03168e+13 8.4672e+12 7.6992e+12 8.32e+12 8.7552e+12 7.9424e+12 8.2944e+12 9.6256e+12 9.92e+12 8.4928e+12 7.968e+12 1.01888e+13 1.04576e+13 8.64e+12 7.3024e+12 8.1088e+12 8.032e+12 8.064e+12 </DataArray>
<DataArray type="Float32" Name="potential" format="ascii">
0 0 0 0 0 0 0 0 0 0 0 0 0 0 0 0 0 0 0 0 0 0 0 0 0 0 0 0 0 0 0 0 0 0 0 0 0 0 0 0 0 0 0 0 0 0 0 0 0 0 0 0 0 0 0 0 0 0 0 0 0 0 0 0 </DataArray>
<DataArray type="Float32" Name="temperature" format="ascii">
684.745 737.243 681.932 629.798 745.006 906.594 866.701 722.112 663.783 890.794 872.872 727.068 621.351 725.036 720.062 643.79 751.98 906.85 888.616 677.284 872.203 1287.62 1220.85 849.437 830.791 1168.77 1213.17 906.007 718.53 857.597 929.317 711.254 702.505 901.668 922.341 732.657 871.522 1249.12 1292.27 898.62 829.79 1233.25 1261.19 911.586 715.606 873.246 889.549 732.402 636.445 684.396 683.445 629.175 678.762 854.257 868.84 732.305 721.833 844.48 878.224 724.092 635.708 710.424 732.112 624.949 </DataArray>
<DataArray type="Float32" Name="velocity" format="ascii">
321.437 492.73 621.695 520.976 489.771 674.493 832.231 691.76 604.17 760.503 805.023 646.203 484.097 616.796 614.867 463.668 370.912 457.713 672.222 633.098 593.909 515.327 732.325 790.685 750.123 758.193 743.059 733.77 605.044 719.922 694.279 558.046 439.113 495.684 569.031 520.385 551.845 425.965 460.459 613.355 654.048 613.868 522.033 576.064 538.572 671.64 601.168 477.759 379.841 504.167 496.114 389.253 500.831 632.396 617.474 496.952 511.404 616.8 595.091 470.959 386.754 507.052 482.178 386.177 </DataArray>
<DataArray type="Float32" Name="E_field" format="ascii">
0 0 0 0 0 0 0 0 0 0 0 0 0 0 0 0 0 0 0 0 0 0 0 0 0 0 0 0 0 0 0 0 0 0 0 0 0 0 0 0 0 0 0 0 0 0 0 0 0 0 0 0 0 0 0 0 0 0 0 0 0 0 0 0 </DataArray>
</CellData>
<PointData Scalars="number_density">
<DataArray type="Float32" Name="number_density" format="ascii">
7.4368e+12 7.3024e+12 7.6992e+12 8.0128e+12 7.4368e+12 8.064e+12 7.9424e+12 6.816e+12 7.5968e+12 7.7056e+12 7.4784e+12 7.6352e+12 8.1312e+12 7.9968e+12 8.3104e+12 9.104e+12 8.6496e+12 8.208e+12 7.9968e+12 7.5136e+12 7.8624e+12 8.3776e+12 8.2656e+12 8.352e+12 8.5664e+12 8.2176e+12 8.1504e+12 8.0224e+12 7.2512e+12 7.0848e+12 7.376e+12 7.4176e+12 7.5648e+12 7.8816e+12 7.7536e+12 7.7056e+12 8.0704e+12 8.048e+12 8.0096e+12 8.5376e+12 8.3488e+12 8.288e+12 8.2176e+12 7.344e+12 8.952e+12 8.8112e+12 7.9824e+12 9.6032e+12 9.8912e+12 8.6928e+12 8.7536e+12 9.144e+12 8.2848e+12 8.2304e+12 8.4512e+12 7.7776e+12 9.3904e+12 1.01952e+13 9.0048e+12 9.0448e+12 9.7152e+12 8.8784e+12 8.176e+12 8.9184e+12 8.472e+12 8.7808e+12 1.00304e+13 9.2912e+12 8.24e+12 9.088e+12 8.72e+12 8.392e+12 9.1968e+12 8.7984e+12 9.0192e+12 1.0048e+13 9.3776e+12 8.4848e+12 9.1552e+12 8.7776e+12 8.9872e+12 9.624e+12 8.8672e+12 1.01248e+13 1.07216e+13 9.16e+12 9.2864e+12 9.4752e+12 8.1392e+12 8.6672e+12 8.7408e+12 7.72e+12 8.7632e+12 9.24e+12 8.1632e+12 8.0224e+12 8.5488e+12 7.992e+12 1.04624e+13 1.15752e+13 9.4776e+12 1.11864e+13 1.34008e+13 1.08456e+13 9.4552e+12 1.10224e+13 9.6736e+12 1.22272e+13 1.44896e+13 1.15664e+13 1.38576e+13 1.78512e+13 1.40368e+13 1.10832e+13 1.37376e+13 1.1696e+13 1.03408e+13 1.18624e+13 1.03376e+13 1.15624e+13 1.40944e+13 1.19616e+13 9.8352e+12 1.1588e+13 1.04176e+13 </DataArray>
<DataArray type="Float32" Name="potential" format="ascii">
0 0 0 0 0 0 0 0 0 0 0 0 0 0 0 0 0 0 0 0 0 0 0 0 0 0 0 0 0 0 0 0 0 0 0 0 0 0 0 0 0 0 0 0 0 0 0 0 0 0 0 0 0 0 0 0 0 0 0 0 0 0 0 0 0 0 0 0 0 0 0 0 0 0 0 0 0 0 0 0 0 0 0 0 0 0 0 0 0 0 0 0 0 0 0 0 0 0 0 0 0 0 0 0 0 0 0 0 0 0 0 0 0 0 0 0 0 0 0 0 0 0 0 0 0 </DataArray>
<DataArray type="Float32" Name="temperature" format="ascii">
621.351 635.708 636.445 684.745 643.79 624.949 629.175 629.798 669.941 717.068 675.657 678.771 700.298 657.604 669.475 727.242 718.362 714.875 704.395 642.567 677.522 721.828 678.675 674.52 728.199 680.74 680.916 704.971 653.541 675.955 724.59 685.429 673.194 722.549 681.926 673.066 721.268 678.53 660.421 683.921 656.31 710.994 709.587 655.865 763.483 777.946 708.614 799.552 851.076 773.679 722.308 775.477 725.734 747.03 801.156 719.658 815.312 891.412 789.499 748.257 816.651 748.189 730.628 808.003 751.106 791.245 887.427 815.63 733.746 801.333 744.753 728.112 791.31 739.844 774.833 861.45 800.865 713.465 772.734 728.441 731.253 797.963 741.904 815.751 904.869 805.224 770.205 803.66 719.408 768.397 798.117 725.136 801.544 884.24 797.188 725.241 802.191 740.948 861.53 937.051 817.091 920.695 1053.42 922.277 809.582 922.202 840.442 942.933 1083.67 935.259 1042.88 1240.78 1069.14 903.447 1053.26 944.31 822.334 932.041 844.956 910.376 1060.2 945.891 820.542 927.81 844.264 </DataArray>
<DataArray type="Float32" Name="velocity" format="ascii">
484.097 386.754 379.841 321.437 463.668 386.177 389.253 520.976 541.231 554.798 451.948 441.748 490.91 433.448 403.335 374.17 336.847 396.317 537.709 541.598 507.348 486.767 421.165 421.089 458.667 437.576 440.814 552.454 570.376 603.483 649.724 546.998 542.486 595.032 529.163 444.454 476.082 429.67 438.485 480.02 435.007 397.505 534.194 568.599 423.236 586.26 602.135 428.023 571.964 608.527 447.405 520.872 503.144 583.267 681.23 646.901 530.273 589.77 592.883 450.252 486.004 480.16 592.87 622.96 564.43 602.252 598.696 533.266 506.708 520.589 463.695 491.552 516.213 466.128 531.79 547.226 501.481 488.435 519.239 478.38 439.267 469.713 468.352 372.726 441.043 554.765 383.534 517.295 599.117 469.472 611.025 657.41 598.423 690.694 709.715 601.754 657.939 611.835 441.969 546.399 664.597 588.323 602.285 689.313 638.054 648.541 621.885 359.664 315.527 545.69 471.662 195.111 484.659 608.53 528.707 521.62 456.191 432.808 473.979 497.854 394.354 450.028 528.371 500.211 466.889 </DataArray>
<DataArray type="Float32" Name="E_field" format="ascii">
0 0 0 0 0 0 0 0 0 0 0 0 0 0 0 0 0 0 0 0 0 0 0 0 0 0 0 0 0 0 0 0 0 0 0 0 0 0 0 0 0 0 0 0 0 0 0 0 0 0 0 0 0 0 0 0 0 0 0 0 0 0 0 0 0 0 0 0 0 0 0 0 0 0 0 0 0 0 0 0 0 0 0 0 0 0 0 0 0 0 0 0 0 0 0 0 0 0 0 0 0 0 0 0 0 0 0 0 0 0 0 0 0 0 0 0 0 0 0 0 0 0 0 0 0 </DataArray>
</PointData>
</Piece>
</UnstructuredGrid>
</VTKFile>
