<VTKFile type="UnstructuredGrid" version="0.1" byte_order="LittleEndian">
<UnstructuredGrid>
<Piece NumberOfPoints="125" NumberOfCells="64">
<Points>
<DataArray type="Float32" NumberOfComponents="3" format="ascii">
-0.5 -0.5 -0.5 0.5 -0.5 -0.5 0.5 0.5 -0.5 -0.5 0.5 -0.5 -0.5 -0.5 0.5 0.5 -0.5 0.5 0.5 0.5 0.5 -0.5 0.5 0.5 -0.25 -0.5 -0.5 0 -0.5 -0.5 0.25 -0.5 -0.5 0.5 -0.25 -0.5 0.5 0 -0.5 0.5 0.25 -0.5 0.25 0.5 -0.5 0 0.5 -0.5 -0.25 0.5 -0.5 -0.5 0.25 -0.5 -0.5 0 -0.5 -0.5 -0.25 -0.5 -0.25 -0.5 0.5 0 -0.5 0.5 0.25 -0.5 0.5 0.5 -0.25 0.5 0.5 0 0.5 0.5 0.25 0.5 0.25 0.5 0.5 0 0.5 0.5 -0.25 0.5 0.5 -0.5 0.25 0.5 -0.5 0 0.5 -0.5 -0.25 0.5 -0.5 -0.5 -0.25 -0.5 -0.5 0 -0.5 -0.5 0.25 0.5 -0.5 -0.25 0.5 -0.5 0 0.5 -0.5 0.25 0.5 0.5 -0.25 0.5 0.5 0 0.5 0.5 0.25 -0.5 0.5 -0.25 -0.5 0.5 0 -0.5 0.5 0.25 -0.25 0.25 -0.5 -0.25 0 -0.5 -0.25 -0.25 -0.5 0 0.25 -0.5 0 0 -0.5 0 -0.25 -0.5 0.25 0.25 -0.5 0.25 0 -0.5 0.25 -0.25 -0.5 -0.25 -0.25 0.5 -0.25 0 0.5 -0.25 0.25 0.5 0 -0.25 0.5 0 0 0.5 0 0.25 0.5 0.25 -0.25 0.5 0.25 0 0.5 0.25 0.25 0.5 -0.25 -0.5 -0.25 -0.25 -0.5 0 -0.25 -0.5 0.25 0 -0.5 -0.25 0 -0.5 0 0 -0.5 0.25 0.25 -0.5 -0.25 0.25 -0.5 0 0.25 -0.5 0.25 0.5 -0.25 -0.25 0.5 -0.25 0 0.5 -0.25 0.25 0.5 0 -0.25 0.5 0 0 0.5 0 0.25 0.5 0.25 -0.25 0.5 0.25 0 0.5 0.25 0.25 0.25 0.5 -0.25 0.25 0.5 0 0.25 0.5 0.25 0 0.5 -0.25 0 0.5 0 0 0.5 0.25 -0.25 0.5 -0.25 -0.25 0.5 0 -0.25 0.5 0.25 -0.5 0.25 -0.25 -0.5 0.25 0 -0.5 0.25 0.25 -0.5 0 -0.25 -0.5 0 0 -0.5 0 0.25 -0.5 -0.25 -0.25 -0.5 -0.25 0 -0.5 -0.25 0.25 -0.25 0.25 -0.25 -0.25 0.25 0 -0.25 0.25 0.25 -0.25 0 -0.25 -0.25 0 0 -0.25 0 0.25 -0.25 -0.25 -0.25 -0.25 -0.25 0 -0.25 -0.25 0.25 0 0.25 -0.25 0 0.25 0 0 0.25 0.25 0 0 -0.25 0 0 0 0 0 0.25 0 -0.25 -0.25 0 -0.25 0 0 -0.25 0.25 0.25 0.25 -0.25 0.25 0.25 0 0.25 0.25 0.25 0.25 0 -0.25 0.25 0 0 0.25 0 0.25 0.25 -0.25 -0.25 0.25 -0.25 0 0.25 -0.25 0.25 </DataArray>
</Points>
<Cells>
<DataArray type="Int32" Name="connectivity" format="ascii">
44 16 3 17 98 86 41 89 98 86 41 89 99 87 42 90 99 87 42 90 100 88 43 91 100 88 43 91 55 28 7 29 45 44 17 18 101 98 89 92 101 98 89 92 102 99 90 93 102 99 90 93 103 100 91 94 103 100 91 94 54 55 29 30 46 45 18 19 104 101 92 95 104 101 92 95 105 102 93 96 105 102 93 96 106 103 94 97 106 103 94 97 53 54 30 31 8 46 19 0 62 104 95 32 62 104 95 32 63 105 96 33 63 105 96 33 64 106 97 34 64 106 97 34 20 53 31 4 47 15 16 44 107 83 86 98 107 83 86 98 108 84 87 99 108 84 87 99 109 85 88 100 109 85 88 100 58 27 28 55 48 47 44 45 110 107 98 101 110 107 98 101 111 108 99 102 111 108 99 102 112 109 100 103 112 109 100 103 57 58 55 54 49 48 45 46 113 110 101 104 113 110 101 104 114 111 102 105 114 111 102 105 115 112 103 106 115 112 103 106 56 57 54 53 9 49 46 8 65 113 104 62 65 113 104 62 66 114 105 63 66 114 105 63 67 115 106 64 67 115 106 64 21 56 53 20 50 14 15 47 116 80 83 107 116 80 83 107 117 81 84 108 117 81 84 108 118 82 85 109 118 82 85 109 61 26 27 58 51 50 47 48 119 116 107 110 119 116 107 110 120 117 108 111 120 117 108 111 121 118 109 112 121 118 109 112 60 61 58 57 52 51 48 49 122 119 110 113 122 119 110 113 123 120 111 114 123 120 111 114 124 121 112 115 124 121 112 115 59 60 57 56 10 52 49 9 68 122 113 65 68 122 113 65 69 123 114 66 69 123 114 66 70 124 115 67 70 124 115 67 22 59 56 21 13 2 14 50 77 38 80 116 77 38 80 116 78 39 81 117 78 39 81 117 79 40 82 118 79 40 82 118 25 6 26 61 12 13 50 51 74 77 116 119 74 77 116 119 75 78 117 120 75 78 117 120 76 79 118 121 76 79 118 121 24 25 61 60 11 12 51 52 71 74 119 122 71 74 119 122 72 75 120 123 72 75 120 123 73 76 121 124 73 76 121 124 23 24 60 59 1 11 52 10 35 71 122 68 35 71 122 68 36 72 123 69 36 72 123 69 37 73 124 70 37 73 124 70 5 23 59 22 </DataArray>
<DataArray type="Int32" Name="offsets" format="ascii">
8 16 24 32 40 48 56 64 72 80 88 96 104 112 120 128 136 144 152 160 168 176 184 192 200 208 216 224 232 240 248 256 264 272 280 288 296 304 312 320 328 336 344 352 360 368 376 384 392 400 408 416 424 432 440 448 456 464 472 480 488 496 504 512 </DataArray>
<DataArray type="UInt8" Name="types" format="ascii">
12 12 12 12 12 12 12 12 12 12 12 12 12 12 12 12 12 12 12 12 12 12 12 12 12 12 12 12 12 12 12 12 12 12 12 12 12 12 12 12 12 12 12 12 12 12 12 12 12 12 12 12 12 12 12 12 12 12 12 12 12 12 12 12 </DataArray>
</Cells>
<CellData Scalars="scalars">
<DataArray type="Float32" Name="number_density" format="ascii">
9.4272e+12 9.4016e+12 9.1968e+12 8.7936e+12 9.5424e+12 9.9456e+12 9.4656e+12 8.7168e+12 9.3632e+12 9.7664e+12 9.7472e+12 9.1712e+12 9.0752e+12 9.1776e+12 9.4528e+12 9.1264e+12 9.4528e+12 1.04896e+13 1.01824e+13 9.3888e+12 9.9392e+12 1.28512e+13 1.2512e+13 9.7856e+12 9.5808e+12 1.26592e+13 1.22752e+13 9.9904e+12 9.2224e+12 1.01632e+13 9.9584e+12 9.1328e+12 9.568e+12 1.04896e+13 1.01056e+13 9.376e+12 1.0208e+13 1.26784e+13 1.26016e+13 1.02912e+13 1.01568e+13 1.2512e+13 1.29216e+13 1.07328e+13 9.3632e+12 1.008e+13 1.0272e+13 9.6128e+12 9.1712e+12 9.4464e+12 9.4656e+12 9.344e+12 9.4912e+12 9.664e+12 1.00544e+13 9.632e+12 9.2544e+12 1.0272e+13 1.05152e+13 9.4912e+12 8.5248e+12 9.2096e+12 9.088e+12 9.4528e+12 </DataArray>
<DataArray type="Float32" Name="potential" format="ascii">
0 0 0 0 0 0 0 0 0 0 0 0 0 0 0 0 0 0 0 0 0 0 0 0 0 0 0 0 0 0 0 0 0 0 0 0 0 0 0 0 0 0 0 0 0 0 0 0 0 0 0 0 0 0 0 0 0 0 0 0 0 0 0 0 </DataArray>
<DataArray type="Float32" Name="temperature" format="ascii">
675.232 698.027 687.363 665.217 713.842 767.284 758.579 685.598 675.005 778.744 736.916 715.049 653.367 679.117 710.883 667.592 714.201 772.465 768.066 663.062 761.376 914.651 882.194 728.865 742.181 874.236 883.6 764.483 730.744 748.012 782.67 698.013 689.838 784.44 790.201 704.649 763.269 883.267 906.186 763.288 746.335 886.678 912.94 757.92 685.19 770.305 773.433 712.392 652.324 683.366 668.873 661.803 680.938 739.899 763.511 727.367 697.157 756.227 772.74 714.697 677.478 693.157 709.703 662.351 </DataArray>
<DataArray type="Float32" Name="velocity" format="ascii">
230.664 331.203 395.311 355.086 316.452 447.881 548.015 439.012 396.598 499.966 531.703 440.21 321.461 407.712 403.525 316.646 248.847 303.063 443.723 421.815 386.402 322.12 463.492 518.594 480.063 477.823 463.559 482.739 396.134 466.717 454.794 349.178 279.358 329.848 379.143 346.574 364.428 291.074 312.844 396.568 425.927 384.216 345.344 383.005 359.106 452.229 405.751 314.409 252.885 327.557 315.096 259.072 338.368 408.972 408.065 328.735 332.527 395.219 388.024 307.663 252.919 339.045 312.027 257.301 </DataArray>
<DataArray type="Float32" Name="E_field" format="ascii">
0 0 0 0 0 0 0 0 0 0 0 0 0 0 0 0 0 0 0 0 0 0 0 0 0 0 0 0 0 0 0 0 0 0 0 0 0 0 0 0 0 0 0 0 0 0 0 0 0 0 0 0 0 0 0 0 0 0 0 0 0 0 0 0 </DataArray>
</CellData>
<PointData Scalars="number_density">
<DataArray type="Float32" Name="number_density" format="ascii">
9.0752e+12 8.5248e+12 9.1712e+12 9.4272e+12 9.1264e+12 9.4528e+12 9.344e+12 8.7936e+12 9.1488e+12 9.2928e+12 8.944e+12 8.8896e+12 9.3728e+12 9.3312e+12 9.3696e+12 9.5104e+12 9.44e+12 9.4848e+12 9.4528e+12 9.2192e+12 9.1296e+12 9.3728e+12 9.5328e+12 9.472e+12 9.5616e+12 9.488e+12 9.36e+12 9.3824e+12 9.0912e+12 8.7552e+12 8.944e+12 9.1488e+12 9.1264e+12 9.3152e+12 9.2896e+12 8.8672e+12 9.1488e+12 9.2704e+12 9.3088e+12 9.456e+12 9.4048e+12 9.4144e+12 9.2992e+12 8.9952e+12 9.5904e+12 9.6064e+12 9.3104e+12 9.792e+12 9.9712e+12 9.5808e+12 9.6096e+12 9.7776e+12 9.3248e+12 9.3552e+12 9.416e+12 9.1712e+12 9.8672e+12 1.02e+13 9.7104e+12 9.8224e+12 1.00368e+13 9.6608e+12 9.4096e+12 9.688e+12 9.4176e+12 9.7072e+12 1.01184e+13 9.744e+12 9.2944e+12 9.6624e+12 9.6064e+12 9.3152e+12 9.7712e+12 9.6368e+12 9.6704e+12 1.01264e+13 9.9232e+12 9.4432e+12 9.6576e+12 9.624e+12 9.6688e+12 9.8768e+12 9.5728e+12 1e+13 1.03168e+13 9.7632e+12 9.6928e+12 9.8176e+12 9.3904e+12 9.5792e+12 9.5024e+12 9.0432e+12 9.6544e+12 9.7312e+12 9.2752e+12 9.3456e+12 9.536e+12 9.3744e+12 1.01312e+13 1.05056e+13 9.7552e+12 1.0456e+13 1.11528e+13 1.0208e+13 9.876e+12 1.04e+13 9.8568e+12 1.07096e+13 1.14888e+13 1.05304e+13 1.13232e+13 1.26264e+13 1.13888e+13 1.04672e+13 1.13552e+13 1.0612e+13 1.00896e+13 1.05632e+13 1.01088e+13 1.05296e+13 1.14024e+13 1.078e+13 9.9216e+12 1.06088e+13 1.02608e+13 </DataArray>
<DataArray type="Float32" Name="potential" format="ascii">
0 0 0 0 0 0 0 0 0 0 0 0 0 0 0 0 0 0 0 0 0 0 0 0 0 0 0 0 0 0 0 0 0 0 0 0 0 0 0 0 0 0 0 0 0 0 0 0 0 0 0 0 0 0 0 0 0 0 0 0 0 0 0 0 0 0 0 0 0 0 0 0 0 0 0 0 0 0 0 0 0 0 0 0 0 0 0 0 0 0 0 0 0 0 0 0 0 0 0 0 0 0 0 0 0 0 0 0 0 0 0 0 0 0 0 0 0 0 0 0 0 0 0 0 0 </DataArray>
<DataArray type="Float32" Name="temperature" format="ascii">
653.367 677.478 652.324 675.232 667.592 662.351 661.803 665.217 692.055 707.967 681.334 687.318 689.048 666.631 671.081 702.02 694.717 694.537 694.423 664.186 682.803 705.202 687.371 688.524 721.032 694.585 683.226 683.856 664.14 675.408 700.324 691.321 666.242 695 689.238 685.318 701.43 686.027 667.845 676.119 665.338 686.63 692.695 676.29 716.163 723.101 700.324 732.171 753.29 726.112 696.592 721.925 701.54 711.284 723.499 685.686 733.202 753.639 714.966 711.84 740.818 714.277 702.81 730.171 714.79 733.563 768.605 741.627 706.532 736.649 714.47 706.005 732.957 714.873 718.555 758.094 744.579 689.132 713.912 705.389 702.492 731.72 706.381 740.236 778.793 731.495 714.981 731.481 695.927 713.596 727.814 699.189 733.719 760.381 724.036 696.558 726.415 707.61 752.135 781.079 729.868 778.415 824.525 769.41 735.176 774.272 744.901 785.438 837.684 775.814 821.499 892.969 824.934 772.96 828.984 785.681 734.667 777.468 748.235 769.221 827.681 789.831 739.066 784.398 752.022 </DataArray>
<DataArray type="Float32" Name="velocity" format="ascii">
321.461 252.919 252.885 230.664 316.646 257.301 259.072 355.086 357.154 365.151 299.46 285.619 329.292 287.49 262.736 243.883 234.116 267.279 351.827 356.691 328.941 316.467 276.896 276.653 303.487 290.035 291.816 371.712 383.114 394.912 429.263 372.537 357.177 394.575 352.801 293.828 315.686 281.81 287.324 310.392 281.258 272.303 351.157 372.38 280.572 378.958 392.281 287.546 380.069 395.813 291.983 343.673 327.323 383.38 447.673 423.427 347.955 397.173 397.602 295.573 318.467 312.336 387.302 407.692 367.235 397.409 402.751 350.533 337.45 351.228 304.13 317.326 336.733 303.741 350.366 362.032 331.06 319.554 340.398 312.993 285.608 308.02 305.277 243.454 305.675 372.458 256.486 341.792 392.671 312.331 405.031 426.385 392.925 464.543 468.851 394.208 435.591 406.753 285.654 356.991 428.677 376.472 391.38 445.287 412.049 419.404 402.475 236.179 215.036 361.767 308.048 115.243 317.335 394.146 346.396 338.918 296.767 286.353 307.707 324.97 261.499 295.843 340.981 326.999 304.385 </DataArray>
<DataArray type="Float32" Name="E_field" format="ascii">
0 0 0 0 0 0 0 0 0 0 0 0 0 0 0 0 0 0 0 0 0 0 0 0 0 0 0 0 0 0 0 0 0 0 0 0 0 0 0 0 0 0 0 0 0 0 0 0 0 0 0 0 0 0 0 0 0 0 0 0 0 0 0 0 0 0 0 0 0 0 0 0 0 0 0 0 0 0 0 0 0 0 0 0 0 0 0 0 0 0 0 0 0 0 0 0 0 0 0 0 0 0 0 0 0 0 0 0 0 0 0 0 0 0 0 0 0 0 0 0 0 0 0 0 0 </DataArray>
</PointData>
</Piece>
</UnstructuredGrid>
</VTKFile>
