<VTKFile type="UnstructuredGrid" version="0.1" byte_order="LittleEndian">
<UnstructuredGrid>
<Piece NumberOfPoints="125" NumberOfCells="64">
<Points>
<DataArray type="Float32" NumberOfComponents="3" format="ascii">
-0.5 -0.5 -0.5 0.5 -0.5 -0.5 0.5 0.5 -0.5 -0.5 0.5 -0.5 -0.5 -0.5 0.5 0.5 -0.5 0.5 0.5 0.5 0.5 -0.5 0.5 0.5 -0.25 -0.5 -0.5 0 -0.5 -0.5 0.25 -0.5 -0.5 0.5 -0.25 -0.5 0.5 0 -0.5 0.5 0.25 -0.5 0.25 0.5 -0.5 0 0.5 -0.5 -0.25 0.5 -0.5 -0.5 0.25 -0.5 -0.5 0 -0.5 -0.5 -0.25 -0.5 -0.25 -0.5 0.5 0 -0.5 0.5 0.25 -0.5 0.5 0.5 -0.25 0.5 0.5 0 0.5 0.5 0.25 0.5 0.25 0.5 0.5 0 0.5 0.5 -0.25 0.5 0.5 -0.5 0.25 0.5 -0.5 0 0.5 -0.5 -0.25 0.5 -0.5 -0.5 -0.25 -0.5 -0.5 0 -0.5 -0.5 0.25 0.5 -0.5 -0.25 0.5 -0.5 0 0.5 -0.5 0.25 0.5 0.5 -0.25 0.5 0.5 0 0.5 0.5 0.25 -0.5 0.5 -0.25 -0.5 0.5 0 -0.5 0.5 0.25 -0.25 0.25 -0.5 -0.25 0 -0.5 -0.25 -0.25 -0.5 0 0.25 -0.5 0 0 -0.5 0 -0.25 -0.5 0.25 0.25 -0.5 0.25 0 -0.5 0.25 -0.25 -0.5 -0.25 -0.25 0.5 -0.25 0 0.5 -0.25 0.25 0.5 0 -0.25 0.5 0 0 0.5 0 0.25 0.5 0.25 -0.25 0.5 0.25 0 0.5 0.25 0.25 0.5 -0.25 -0.5 -0.25 -0.25 -0.5 0 -0.25 -0.5 0.25 0 -0.5 -0.25 0 -0.5 0 0 -0.5 0.25 0.25 -0.5 -0.25 0.25 -0.5 0 0.25 -0.5 0.25 0.5 -0.25 -0.25 0.5 -0.25 0 0.5 -0.25 0.25 0.5 0 -0.25 0.5 0 0 0.5 0 0.25 0.5 0.25 -0.25 0.5 0.25 0 0.5 0.25 0.25 0.25 0.5 -0.25 0.25 0.5 0 0.25 0.5 0.25 0 0.5 -0.25 0 0.5 0 0 0.5 0.25 -0.25 0.5 -0.25 -0.25 0.5 0 -0.25 0.5 0.25 -0.5 0.25 -0.25 -0.5 0.25 0 -0.5 0.25 0.25 -0.5 0 -0.25 -0.5 0 0 -0.5 0 0.25 -0.5 -0.25 -0.25 -0.5 -0.25 0 -0.5 -0.25 0.25 -0.25 0.25 -0.25 -0.25 0.25 0 -0.25 0.25 0.25 -0.25 0 -0.25 -0.25 0 0 -0.25 0 0.25 -0.25 -0.25 -0.25 -0.25 -0.25 0 -0.25 -0.25 0.25 0 0.25 -0.25 0 0.25 0 0 0.25 0.25 0 0 -0.25 0 0 0 0 0 0.25 0 -0.25 -0.25 0 -0.25 0 0 -0.25 0.25 0.25 0.25 -0.25 0.25 0.25 0 0.25 0.25 0.25 0.25 0 -0.25 0.25 0 0 0.25 0 0.25 0.25 -0.25 -0.25 0.25 -0.25 0 0.25 -0.25 0.25 </DataArray>
</Points>
<Cells>
<DataArray type="Int32" Name="connectivity" format="ascii">
44 16 3 17 98 86 41 89 98 86 41 89 99 87 42 90 99 87 42 90 100 88 43 91 100 88 43 91 55 28 7 29 45 44 17 18 101 98 89 92 101 98 89 92 102 99 90 93 102 99 90 93 103 100 91 94 103 100 91 94 54 55 29 30 46 45 18 19 104 101 92 95 104 101 92 95 105 102 93 96 105 102 93 96 106 103 94 97 106 103 94 97 53 54 30 31 8 46 19 0 62 104 95 32 62 104 95 32 63 105 96 33 63 105 96 33 64 106 97 34 64 106 97 34 20 53 31 4 47 15 16 44 107 83 86 98 107 83 86 98 108 84 87 99 108 84 87 99 109 85 88 100 109 85 88 100 58 27 28 55 48 47 44 45 110 107 98 101 110 107 98 101 111 108 99 102 111 108 99 102 112 109 100 103 112 109 100 103 57 58 55 54 49 48 45 46 113 110 101 104 113 110 101 104 114 111 102 105 114 111 102 105 115 112 103 106 115 112 103 106 56 57 54 53 9 49 46 8 65 113 104 62 65 113 104 62 66 114 105 63 66 114 105 63 67 115 106 64 67 115 106 64 21 56 53 20 50 14 15 47 116 80 83 107 116 80 83 107 117 81 84 108 117 81 84 108 118 82 85 109 118 82 85 109 61 26 27 58 51 50 47 48 119 116 107 110 119 116 107 110 120 117 108 111 120 117 108 111 121 118 109 112 121 118 109 112 60 61 58 57 52 51 48 49 122 119 110 113 122 119 110 113 123 120 111 114 123 120 111 114 124 121 112 115 124 121 112 115 59 60 57 56 10 52 49 9 68 122 113 65 68 122 113 65 69 123 114 66 69 123 114 66 70 124 115 67 70 124 115 67 22 59 56 21 13 2 14 50 77 38 80 116 77 38 80 116 78 39 81 117 78 39 81 117 79 40 82 118 79 40 82 118 25 6 26 61 12 13 50 51 74 77 116 119 74 77 116 119 75 78 117 120 75 78 117 120 76 79 118 121 76 79 118 121 24 25 61 60 11 12 51 52 71 74 119 122 71 74 119 122 72 75 120 123 72 75 120 123 73 76 121 124 73 76 121 124 23 24 60 59 1 11 52 10 35 71 122 68 35 71 122 68 36 72 123 69 36 72 123 69 37 73 124 70 37 73 124 70 5 23 59 22 </DataArray>
<DataArray type="Int32" Name="offsets" format="ascii">
8 16 24 32 40 48 56 64 72 80 88 96 104 112 120 128 136 144 152 160 168 176 184 192 200 208 216 224 232 240 248 256 264 272 280 288 296 304 312 320 328 336 344 352 360 368 376 384 392 400 408 416 424 432 440 448 456 464 472 480 488 496 504 512 </DataArray>
<DataArray type="UInt8" Name="types" format="ascii">
12 12 12 12 12 12 12 12 12 12 12 12 12 12 12 12 12 12 12 12 12 12 12 12 12 12 12 12 12 12 12 12 12 12 12 12 12 12 12 12 12 12 12 12 12 12 12 12 12 12 12 12 12 12 12 12 12 12 12 12 12 12 12 12 </DataArray>
</Cells>
<CellData Scalars="scalars">
<DataArray type="Float32" Name="number_density" format="ascii">
9.9008e+12 9.696e+12 9.664e+12 9.568e+12 9.9456e+12 1.00736e+13 9.664e+12 9.3376e+12 9.9584e+12 9.6512e+12 9.8944e+12 9.7344e+12 9.8112e+12 9.7408e+12 9.8624e+12 9.7984e+12 9.4784e+12 1.03616e+13 1.008e+13 9.888e+12 9.76e+12 1.09696e+13 1.07008e+13 9.9072e+12 9.6768e+12 1.11616e+13 1.08416e+13 9.9072e+12 9.6896e+12 1.03104e+13 9.8432e+12 9.4528e+12 9.6192e+12 1.00736e+13 1.02464e+13 9.6896e+12 1.024e+13 1.11744e+13 1.07456e+13 1.04e+13 1.02144e+13 1.07392e+13 1.10976e+13 1.06752e+13 9.7472e+12 1.01696e+13 1.0272e+13 9.7856e+12 9.6e+12 9.7472e+12 9.8368e+12 9.7536e+12 9.9392e+12 9.6512e+12 1.0016e+13 9.9456e+12 9.9072e+12 1.01824e+13 1.01696e+13 9.9456e+12 8.9856e+12 9.6832e+12 9.5424e+12 9.8752e+12 </DataArray>
<DataArray type="Float32" Name="potential" format="ascii">
0 0 0 0 0 0 0 0 0 0 0 0 0 0 0 0 0 0 0 0 0 0 0 0 0 0 0 0 0 0 0 0 0 0 0 0 0 0 0 0 0 0 0 0 0 0 0 0 0 0 0 0 0 0 0 0 0 0 0 0 0 0 0 0 </DataArray>
<DataArray type="Float32" Name="temperature" format="ascii">
686.643 696.094 688.516 675.201 692.68 725.268 720.942 669.311 690.359 728.102 709.82 715.834 671.239 675.402 702.82 683.179 689.649 744.592 712.41 673.932 728.609 776.899 762.613 708.783 704.481 764.63 758.537 720.082 725.354 701.232 725.267 693.361 691.192 734.539 740.047 703.537 718.109 779.288 802.769 702.602 727.05 767.227 770.492 723.672 684.168 735.748 729.712 696.841 655.837 679.145 680.968 679.795 695.124 725.023 711.9 715.094 703.47 724.083 732.098 712.916 688.627 688.654 717.672 674.582 </DataArray>
<DataArray type="Float32" Name="velocity" format="ascii">
154.414 229.807 268.993 238.646 207.149 291.72 365.274 297.148 262.033 326.183 356.181 291.334 227.778 271.907 272.345 214.982 163.115 194.438 289.663 286.138 248.717 209.83 295.378 339.947 318.147 306.368 302.688 320.41 258.458 304.58 304.943 236.454 180.125 219.216 255.45 223.229 243.744 191.589 204.257 261.563 279.95 246.188 223.9 252.449 231.787 306.984 274.922 204.645 179.72 201.996 205.926 167.342 219.135 270.765 272.068 222.644 216.627 259.298 251.974 206.036 170.183 220.005 206.482 172.845 </DataArray>
<DataArray type="Float32" Name="E_field" format="ascii">
0 0 0 0 0 0 0 0 0 0 0 0 0 0 0 0 0 0 0 0 0 0 0 0 0 0 0 0 0 0 0 0 0 0 0 0 0 0 0 0 0 0 0 0 0 0 0 0 0 0 0 0 0 0 0 0 0 0 0 0 0 0 0 0 </DataArray>
</CellData>
<PointData Scalars="number_density">
<DataArray type="Float32" Name="number_density" format="ascii">
9.8112e+12 8.9856e+12 9.6e+12 9.9008e+12 9.7984e+12 9.8752e+12 9.7536e+12 9.568e+12 9.7504e+12 9.7184e+12 9.3664e+12 9.4464e+12 9.9232e+12 9.7696e+12 9.6096e+12 9.5488e+12 9.6896e+12 9.9232e+12 9.952e+12 9.8848e+12 9.6256e+12 9.6192e+12 9.8304e+12 9.9104e+12 9.9456e+12 9.8496e+12 9.7216e+12 9.7888e+12 9.728e+12 9.4528e+12 9.536e+12 9.7664e+12 9.776e+12 9.8016e+12 9.8304e+12 9.3344e+12 9.6128e+12 9.7088e+12 9.6736e+12 9.792e+12 9.7952e+12 9.7984e+12 9.68e+12 9.616e+12 9.7712e+12 9.8352e+12 9.784e+12 9.7744e+12 9.9728e+12 9.832e+12 9.8496e+12 1.00752e+13 9.7136e+12 9.7232e+12 9.7216e+12 9.6752e+12 9.9552e+12 1.02224e+13 9.9712e+12 1.00704e+13 1.02416e+13 9.9472e+12 9.888e+12 9.9392e+12 9.7392e+12 9.9792e+12 1.01488e+13 9.8384e+12 9.6464e+12 9.9168e+12 9.8688e+12 9.6896e+12 9.8944e+12 9.8832e+12 9.92e+12 1.00048e+13 1.00192e+13 9.7344e+12 9.8128e+12 9.888e+12 9.76e+12 9.976e+12 9.8816e+12 9.8832e+12 1.01904e+13 9.976e+12 9.8592e+12 9.9504e+12 9.8e+12 9.904e+12 9.7744e+12 9.5584e+12 9.9072e+12 9.8208e+12 9.6576e+12 9.7904e+12 9.7872e+12 9.8224e+12 1.00232e+13 1.01512e+13 9.8512e+12 1.01496e+13 1.03696e+13 9.9984e+12 1e+13 1.01632e+13 9.9168e+12 1.02096e+13 1.0544e+13 1.02072e+13 1.0492e+13 1.09288e+13 1.05344e+13 1.02136e+13 1.05544e+13 1.02344e+13 1.00056e+13 1.01864e+13 1.00792e+13 1.0256e+13 1.0472e+13 1.03744e+13 9.9536e+12 1.0232e+13 1.01704e+13 </DataArray>
<DataArray type="Float32" Name="potential" format="ascii">
0 0 0 0 0 0 0 0 0 0 0 0 0 0 0 0 0 0 0 0 0 0 0 0 0 0 0 0 0 0 0 0 0 0 0 0 0 0 0 0 0 0 0 0 0 0 0 0 0 0 0 0 0 0 0 0 0 0 0 0 0 0 0 0 0 0 0 0 0 0 0 0 0 0 0 0 0 0 0 0 0 0 0 0 0 0 0 0 0 0 0 0 0 0 0 0 0 0 0 0 0 0 0 0 0 0 0 0 0 0 0 0 0 0 0 0 0 0 0 0 0 0 0 0 0 </DataArray>
<DataArray type="Float32" Name="temperature" format="ascii">
671.239 688.627 655.837 686.643 683.179 674.582 679.795 675.201 698.297 704.761 686.397 696.048 699.297 675.481 673.514 690.421 688.146 689.662 691.52 680.799 688.27 695.101 685.711 693.749 714.005 697.445 691.666 688.734 674.566 672.256 692.573 699.507 673.32 689.111 693 688.64 703.163 696.127 667.491 680.056 680.381 691.369 692.305 681.858 699.395 704.032 697.858 706.89 719.562 710.263 690.066 710.938 700.829 703.114 703.503 681.807 708.489 713.785 697.214 702.003 713.571 700.257 693.307 701.18 701.157 711.626 722.99 711.295 699.299 717.946 704.702 701.208 715.627 709.317 711.925 723.276 718.002 688.782 699.259 696.939 690.178 708.675 701.087 714.993 732.897 707.481 704.245 710.403 687.515 700.171 707.705 688.492 709.102 721.033 703.977 691.275 704.036 702.914 717.554 728.417 701.463 726.379 743.351 720.74 707.6 720.726 713.613 732.86 756.644 725.837 745.787 772.807 743.694 726.236 744.106 727.246 709.782 731.71 717.089 729.922 751.61 733.943 714.878 733.211 719.748 </DataArray>
<DataArray type="Float32" Name="velocity" format="ascii">
227.778 170.183 179.72 154.414 214.982 172.845 167.342 238.646 241.71 238.446 196.026 188.679 214.538 192.045 178.059 158.294 155.509 176.578 231.954 242.849 221.802 212.028 180.235 184.442 206.194 191.637 187.506 247.125 258.276 266.29 288.308 249.862 242.901 266.312 236.897 192.427 208.194 188.652 188.44 198.466 182.911 186.621 241.982 251.511 182.968 248.983 261.526 187.56 254.096 259.963 190.977 224.573 213.275 256.658 297.497 282.475 231.417 260.729 263.548 195.734 213.337 204.383 257.019 271.021 245.768 263.038 271.675 234.815 221.44 235.528 201.098 207.725 221.525 199.576 229.675 239.768 220.369 208.523 222.819 207.259 188.205 202.484 199.08 160.197 204.031 247.256 170.971 228.194 262.295 206.627 274.151 286.475 256.128 309.501 312.416 262.337 291.28 271.37 185.571 236.343 282.981 244.162 256.356 292.537 270.358 275.984 267.461 153.855 140.986 237.151 202.481 71.9017 206.891 257.704 228.45 224.829 193.017 188.667 202.142 212.33 174.577 196.626 222.076 216.161 199.58 </DataArray>
<DataArray type="Float32" Name="E_field" format="ascii">
0 0 0 0 0 0 0 0 0 0 0 0 0 0 0 0 0 0 0 0 0 0 0 0 0 0 0 0 0 0 0 0 0 0 0 0 0 0 0 0 0 0 0 0 0 0 0 0 0 0 0 0 0 0 0 0 0 0 0 0 0 0 0 0 0 0 0 0 0 0 0 0 0 0 0 0 0 0 0 0 0 0 0 0 0 0 0 0 0 0 0 0 0 0 0 0 0 0 0 0 0 0 0 0 0 0 0 0 0 0 0 0 0 0 0 0 0 0 0 0 0 0 0 0 0 </DataArray>
</PointData>
</Piece>
</UnstructuredGrid>
</VTKFile>
