<VTKFile type="UnstructuredGrid" version="0.1" byte_order="LittleEndian">
<UnstructuredGrid>
<Piece NumberOfPoints="125" NumberOfCells="64">
<Points>
<DataArray type="Float32" NumberOfComponents="3" format="ascii">
-0.5 -0.5 -0.5 0.5 -0.5 -0.5 0.5 0.5 -0.5 -0.5 0.5 -0.5 -0.5 -0.5 0.5 0.5 -0.5 0.5 0.5 0.5 0.5 -0.5 0.5 0.5 -0.25 -0.5 -0.5 0 -0.5 -0.5 0.25 -0.5 -0.5 0.5 -0.25 -0.5 0.5 0 -0.5 0.5 0.25 -0.5 0.25 0.5 -0.5 0 0.5 -0.5 -0.25 0.5 -0.5 -0.5 0.25 -0.5 -0.5 0 -0.5 -0.5 -0.25 -0.5 -0.25 -0.5 0.5 0 -0.5 0.5 0.25 -0.5 0.5 0.5 -0.25 0.5 0.5 0 0.5 0.5 0.25 0.5 0.25 0.5 0.5 0 0.5 0.5 -0.25 0.5 0.5 -0.5 0.25 0.5 -0.5 0 0.5 -0.5 -0.25 0.5 -0.5 -0.5 -0.25 -0.5 -0.5 0 -0.5 -0.5 0.25 0.5 -0.5 -0.25 0.5 -0.5 0 0.5 -0.5 0.25 0.5 0.5 -0.25 0.5 0.5 0 0.5 0.5 0.25 -0.5 0.5 -0.25 -0.5 0.5 0 -0.5 0.5 0.25 -0.25 0.25 -0.5 -0.25 0 -0.5 -0.25 -0.25 -0.5 0 0.25 -0.5 0 0 -0.5 0 -0.25 -0.5 0.25 0.25 -0.5 0.25 0 -0.5 0.25 -0.25 -0.5 -0.25 -0.25 0.5 -0.25 0 0.5 -0.25 0.25 0.5 0 -0.25 0.5 0 0 0.5 0 0.25 0.5 0.25 -0.25 0.5 0.25 0 0.5 0.25 0.25 0.5 -0.25 -0.5 -0.25 -0.25 -0.5 0 -0.25 -0.5 0.25 0 -0.5 -0.25 0 -0.5 0 0 -0.5 0.25 0.25 -0.5 -0.25 0.25 -0.5 0 0.25 -0.5 0.25 0.5 -0.25 -0.25 0.5 -0.25 0 0.5 -0.25 0.25 0.5 0 -0.25 0.5 0 0 0.5 0 0.25 0.5 0.25 -0.25 0.5 0.25 0 0.5 0.25 0.25 0.25 0.5 -0.25 0.25 0.5 0 0.25 0.5 0.25 0 0.5 -0.25 0 0.5 0 0 0.5 0.25 -0.25 0.5 -0.25 -0.25 0.5 0 -0.25 0.5 0.25 -0.5 0.25 -0.25 -0.5 0.25 0 -0.5 0.25 0.25 -0.5 0 -0.25 -0.5 0 0 -0.5 0 0.25 -0.5 -0.25 -0.25 -0.5 -0.25 0 -0.5 -0.25 0.25 -0.25 0.25 -0.25 -0.25 0.25 0 -0.25 0.25 0.25 -0.25 0 -0.25 -0.25 0 0 -0.25 0 0.25 -0.25 -0.25 -0.25 -0.25 -0.25 0 -0.25 -0.25 0.25 0 0.25 -0.25 0 0.25 0 0 0.25 0.25 0 0 -0.25 0 0 0 0 0 0.25 0 -0.25 -0.25 0 -0.25 0 0 -0.25 0.25 0.25 0.25 -0.25 0.25 0.25 0 0.25 0.25 0.25 0.25 0 -0.25 0.25 0 0 0.25 0 0.25 0.25 -0.25 -0.25 0.25 -0.25 0 0.25 -0.25 0.25 </DataArray>
</Points>
<Cells>
<DataArray type="Int32" Name="connectivity" format="ascii">
44 16 3 17 98 86 41 89 98 86 41 89 99 87 42 90 99 87 42 90 100 88 43 91 100 88 43 91 55 28 7 29 45 44 17 18 101 98 89 92 101 98 89 92 102 99 90 93 102 99 90 93 103 100 91 94 103 100 91 94 54 55 29 30 46 45 18 19 104 101 92 95 104 101 92 95 105 102 93 96 105 102 93 96 106 103 94 97 106 103 94 97 53 54 30 31 8 46 19 0 62 104 95 32 62 104 95 32 63 105 96 33 63 105 96 33 64 106 97 34 64 106 97 34 20 53 31 4 47 15 16 44 107 83 86 98 107 83 86 98 108 84 87 99 108 84 87 99 109 85 88 100 109 85 88 100 58 27 28 55 48 47 44 45 110 107 98 101 110 107 98 101 111 108 99 102 111 108 99 102 112 109 100 103 112 109 100 103 57 58 55 54 49 48 45 46 113 110 101 104 113 110 101 104 114 111 102 105 114 111 102 105 115 112 103 106 115 112 103 106 56 57 54 53 9 49 46 8 65 113 104 62 65 113 104 62 66 114 105 63 66 114 105 63 67 115 106 64 67 115 106 64 21 56 53 20 50 14 15 47 116 80 83 107 116 80 83 107 117 81 84 108 117 81 84 108 118 82 85 109 118 82 85 109 61 26 27 58 51 50 47 48 119 116 107 110 119 116 107 110 120 117 108 111 120 117 108 111 121 118 109 112 121 118 109 112 60 61 58 57 52 51 48 49 122 119 110 113 122 119 110 113 123 120 111 114 123 120 111 114 124 121 112 115 124 121 112 115 59 60 57 56 10 52 49 9 68 122 113 65 68 122 113 65 69 123 114 66 69 123 114 66 70 124 115 67 70 124 115 67 22 59 56 21 13 2 14 50 77 38 80 116 77 38 80 116 78 39 81 117 78 39 81 117 79 40 82 118 79 40 82 118 25 6 26 61 12 13 50 51 74 77 116 119 74 77 116 119 75 78 117 120 75 78 117 120 76 79 118 121 76 79 118 121 24 25 61 60 11 12 51 52 71 74 119 122 71 74 119 122 72 75 120 123 72 75 120 123 73 76 121 124 73 76 121 124 23 24 60 59 1 11 52 10 35 71 122 68 35 71 122 68 36 72 123 69 36 72 123 69 37 73 124 70 37 73 124 70 5 23 59 22 </DataArray>
<DataArray type="Int32" Name="offsets" format="ascii">
8 16 24 32 40 48 56 64 72 80 88 96 104 112 120 128 136 144 152 160 168 176 184 192 200 208 216 224 232 240 248 256 264 272 280 288 296 304 312 320 328 336 344 352 360 368 376 384 392 400 408 416 424 432 440 448 456 464 472 480 488 496 504 512 </DataArray>
<DataArray type="UInt8" Name="types" format="ascii">
12 12 12 12 12 12 12 12 12 12 12 12 12 12 12 12 12 12 12 12 12 12 12 12 12 12 12 12 12 12 12 12 12 12 12 12 12 12 12 12 12 12 12 12 12 12 12 12 12 12 12 12 12 12 12 12 12 12 12 12 12 12 12 12 </DataArray>
</Cells>
<CellData Scalars="scalars">
<DataArray type="Float32" Name="number_density" format="ascii">
7.3536e+12 7.7184e+12 6.72e+12 5.5808e+12 7.5264e+12 9.1392e+12 7.904e+12 6.2016e+12 6.5792e+12 8.7424e+12 8.5312e+12 6.1568e+12 6.1312e+12 6.6304e+12 6.8736e+12 6.336e+12 8.672e+12 1.20256e+13 9.7152e+12 6.5408e+12 9.6896e+12 2.41152e+13 2.21312e+13 8.672e+12 8.5312e+12 2.01536e+13 2.1248e+13 9.216e+12 6.6816e+12 9.3504e+12 9.8048e+12 7.552e+12 8.4224e+12 1.12128e+13 1.056e+13 7.5072e+12 9.9264e+12 2.41152e+13 2.38272e+13 1.05536e+13 9.856e+12 2.14016e+13 2.33024e+13 1.12704e+13 6.7712e+12 9.3184e+12 1.00608e+13 7.8016e+12 6.5536e+12 7.4816e+12 8.0704e+12 6.9056e+12 7.5008e+12 9.2736e+12 9.4272e+12 7.5904e+12 7.0528e+12 1.00736e+13 1.0368e+13 7.904e+12 6.2528e+12 7.232e+12 7.3216e+12 6.8608e+12 </DataArray>
<DataArray type="Float32" Name="potential" format="ascii">
0 0 0 0 0 0 0 0 0 0 0 0 0 0 0 0 0 0 0 0 0 0 0 0 0 0 0 0 0 0 0 0 0 0 0 0 0 0 0 0 0 0 0 0 0 0 0 0 0 0 0 0 0 0 0 0 0 0 0 0 0 0 0 0 </DataArray>
<DataArray type="Float32" Name="temperature" format="ascii">
679.667 741.192 676.852 608.295 739.473 986.789 953.455 716.502 657.737 979.617 995.809 727.954 598.618 727.67 735.599 614.779 763.77 1029.46 970.059 694.241 962.37 1584.69 1467.21 922.396 904.375 1405.82 1503.8 996.879 677.799 922.119 993.959 733.167 744.252 997.103 1042.35 757.729 962.879 1578.62 1603.7 1020.48 881.954 1446.13 1566.66 1037.23 722.872 975.3 1014.57 744.154 614.7 691.742 701.134 593.023 698.993 919.882 964.729 768.596 742.729 916.901 972.526 745.242 608.964 713.445 743.183 595.909 </DataArray>
<DataArray type="Float32" Name="velocity" format="ascii">
378.026 562.809 722.96 611.045 572.134 781.684 972.904 810.189 711.08 875.944 942.297 746.088 563.877 724.646 706.654 531.523 440.744 529.607 787.726 735.611 682.33 601.776 858.834 927.722 879.962 899.012 873.744 852.788 708.617 856.26 816.022 660.369 499.702 583.091 646.774 606.92 652.653 471.349 514.093 713.115 763.939 723.328 603.34 661.2 647.909 760.744 694.489 551.631 446.131 583.98 580.162 450.297 574.614 736.887 705.274 576.87 594.077 720.217 692.047 552.212 449.724 588.596 567.408 445.922 </DataArray>
<DataArray type="Float32" Name="E_field" format="ascii">
0 0 0 0 0 0 0 0 0 0 0 0 0 0 0 0 0 0 0 0 0 0 0 0 0 0 0 0 0 0 0 0 0 0 0 0 0 0 0 0 0 0 0 0 0 0 0 0 0 0 0 0 0 0 0 0 0 0 0 0 0 0 0 0 </DataArray>
</CellData>
<PointData Scalars="number_density">
<DataArray type="Float32" Name="number_density" format="ascii">
6.1312e+12 6.2528e+12 6.5536e+12 7.3536e+12 6.336e+12 6.8608e+12 6.9056e+12 5.5808e+12 6.4064e+12 6.7264e+12 6.512e+12 6.6528e+12 7.2768e+12 7.0272e+12 7.488e+12 8.5472e+12 8.0128e+12 7.44e+12 7.0528e+12 6.3552e+12 6.944e+12 7.6768e+12 7.3312e+12 7.3824e+12 7.7472e+12 7.248e+12 7.2064e+12 7.024e+12 6.0608e+12 5.8912e+12 6.1792e+12 6.2464e+12 6.3808e+12 6.752e+12 6.6048e+12 6.7424e+12 7.2768e+12 7.0912e+12 7.0176e+12 7.776e+12 7.488e+12 7.536e+12 7.2192e+12 6.1504e+12 8.3104e+12 8.0816e+12 6.9808e+12 9.1776e+12 9.5008e+12 7.96e+12 8.1008e+12 8.584e+12 7.4832e+12 7.3152e+12 7.5616e+12 6.7488e+12 8.96e+12 9.928e+12 8.3184e+12 8.4592e+12 9.3296e+12 8.1392e+12 7.1984e+12 8.1648e+12 7.6416e+12 8.0304e+12 9.6336e+12 8.8048e+12 7.3936e+12 8.4832e+12 8.0112e+12 7.6528e+12 8.7488e+12 8.1136e+12 8.4752e+12 9.7856e+12 8.8224e+12 7.7024e+12 8.5632e+12 7.9984e+12 8.4176e+12 9.3312e+12 8.2608e+12 1.00832e+13 1.08784e+13 8.5808e+12 8.9424e+12 9.0448e+12 7.1392e+12 7.9344e+12 7.8704e+12 6.6016e+12 7.9968e+12 8.5792e+12 7.1984e+12 7.0208e+12 7.6944e+12 6.9744e+12 1.078e+13 1.24336e+13 9.1832e+12 1.18096e+13 1.52456e+13 1.12576e+13 9.1e+12 1.14168e+13 9.4648e+12 1.35224e+13 1.72128e+13 1.24384e+13 1.59736e+13 2.25368e+13 1.62776e+13 1.1508e+13 1.558e+13 1.2532e+13 1.05608e+13 1.2996e+13 1.05552e+13 1.24e+13 1.64736e+13 1.30304e+13 9.7448e+12 1.23848e+13 1.06112e+13 </DataArray>
<DataArray type="Float32" Name="potential" format="ascii">
0 0 0 0 0 0 0 0 0 0 0 0 0 0 0 0 0 0 0 0 0 0 0 0 0 0 0 0 0 0 0 0 0 0 0 0 0 0 0 0 0 0 0 0 0 0 0 0 0 0 0 0 0 0 0 0 0 0 0 0 0 0 0 0 0 0 0 0 0 0 0 0 0 0 0 0 0 0 0 0 0 0 0 0 0 0 0 0 0 0 0 0 0 0 0 0 0 0 0 0 0 0 0 0 0 0 0 0 0 0 0 0 0 0 0 0 0 0 0 0 0 0 0 0 0 </DataArray>
<DataArray type="Float32" Name="temperature" format="ascii">
598.618 608.964 614.7 679.667 614.779 595.909 593.023 608.295 638.208 700.335 665.918 675.846 720.861 656.847 679.476 754.011 721.719 709.57 698.605 628.178 673.973 738.66 670.031 670.575 756.919 680.809 675.376 725.985 651.268 662.399 722.228 671.367 663.144 731.634 675.189 661.205 728.314 669.546 653.221 696.438 647.078 710.43 709.022 642.574 786.32 815.989 709.632 858.318 927.894 796.75 755.206 821.639 739.13 768.195 840.933 735.359 877.858 994.247 848.711 780.635 892.888 784.956 731.552 844.837 769.376 824.523 976.487 871.462 755.145 861.624 774.453 745.51 836.514 764.215 819.626 943.509 862.773 731.33 819.372 756.87 761.949 858.082 773.558 883.646 1009.74 866.094 803.522 854.39 737.362 786.78 839.572 738.776 840.904 978.917 848.43 740.911 859.674 768.535 935.926 1051.21 876.126 1027.61 1234.65 1035.5 859.22 1033.05 912.743 1077.89 1284.15 1059.77 1215.86 1519.58 1264.79 992.047 1228.55 1073.8 901.022 1062.41 931.466 1018.51 1246.14 1084.9 876.037 1043.59 927.435 </DataArray>
<DataArray type="Float32" Name="velocity" format="ascii">
563.877 449.724 446.131 378.026 531.523 445.922 450.297 611.045 632.897 653.448 537.911 517.328 561.839 504.011 466.414 431.134 398.558 463.646 628.816 635.73 592.851 565.288 487.415 491.278 532.98 507.346 516.636 634.423 667.061 707.995 750.308 630.873 636.68 686.519 609.185 516.029 551.938 501.547 510.834 555.447 507.289 460.475 614.152 663.992 494.146 684.61 707.966 493.535 658.992 713.381 523.151 604.408 595.952 680.505 790.086 760.071 612.905 672.424 684.819 522.918 562.244 562.287 700.557 729.609 661.782 702.047 684.187 620.947 591.359 595.479 540.172 575.793 602.628 546.164 614.965 623.085 574.962 568.934 598.329 555.881 512.345 544.204 547.197 432.041 494.363 634.053 449.184 598.04 701.662 546.498 704.752 770.117 695.388 791.236 826.284 704.434 757.096 711.119 518.264 635.955 782.155 688.725 697.677 806.4 753.833 758.782 731.661 416.257 354.365 628.609 548.408 240.081 560.962 714.501 614.486 611.46 532.688 497.988 553.14 578.956 447.318 517.328 622.086 579.248 545.787 </DataArray>
<DataArray type="Float32" Name="E_field" format="ascii">
0 0 0 0 0 0 0 0 0 0 0 0 0 0 0 0 0 0 0 0 0 0 0 0 0 0 0 0 0 0 0 0 0 0 0 0 0 0 0 0 0 0 0 0 0 0 0 0 0 0 0 0 0 0 0 0 0 0 0 0 0 0 0 0 0 0 0 0 0 0 0 0 0 0 0 0 0 0 0 0 0 0 0 0 0 0 0 0 0 0 0 0 0 0 0 0 0 0 0 0 0 0 0 0 0 0 0 0 0 0 0 0 0 0 0 0 0 0 0 0 0 0 0 0 0 </DataArray>
</PointData>
</Piece>
</UnstructuredGrid>
</VTKFile>
