<VTKFile type="UnstructuredGrid" version="0.1" byte_order="LittleEndian">
<UnstructuredGrid>
<Piece NumberOfPoints="125" NumberOfCells="64">
<Points>
<DataArray type="Float32" NumberOfComponents="3" format="ascii">
-0.5 -0.5 -0.5 0.5 -0.5 -0.5 0.5 0.5 -0.5 -0.5 0.5 -0.5 -0.5 -0.5 0.5 0.5 -0.5 0.5 0.5 0.5 0.5 -0.5 0.5 0.5 -0.25 -0.5 -0.5 0 -0.5 -0.5 0.25 -0.5 -0.5 0.5 -0.25 -0.5 0.5 0 -0.5 0.5 0.25 -0.5 0.25 0.5 -0.5 0 0.5 -0.5 -0.25 0.5 -0.5 -0.5 0.25 -0.5 -0.5 0 -0.5 -0.5 -0.25 -0.5 -0.25 -0.5 0.5 0 -0.5 0.5 0.25 -0.5 0.5 0.5 -0.25 0.5 0.5 0 0.5 0.5 0.25 0.5 0.25 0.5 0.5 0 0.5 0.5 -0.25 0.5 0.5 -0.5 0.25 0.5 -0.5 0 0.5 -0.5 -0.25 0.5 -0.5 -0.5 -0.25 -0.5 -0.5 0 -0.5 -0.5 0.25 0.5 -0.5 -0.25 0.5 -0.5 0 0.5 -0.5 0.25 0.5 0.5 -0.25 0.5 0.5 0 0.5 0.5 0.25 -0.5 0.5 -0.25 -0.5 0.5 0 -0.5 0.5 0.25 -0.25 0.25 -0.5 -0.25 0 -0.5 -0.25 -0.25 -0.5 0 0.25 -0.5 0 0 -0.5 0 -0.25 -0.5 0.25 0.25 -0.5 0.25 0 -0.5 0.25 -0.25 -0.5 -0.25 -0.25 0.5 -0.25 0 0.5 -0.25 0.25 0.5 0 -0.25 0.5 0 0 0.5 0 0.25 0.5 0.25 -0.25 0.5 0.25 0 0.5 0.25 0.25 0.5 -0.25 -0.5 -0.25 -0.25 -0.5 0 -0.25 -0.5 0.25 0 -0.5 -0.25 0 -0.5 0 0 -0.5 0.25 0.25 -0.5 -0.25 0.25 -0.5 0 0.25 -0.5 0.25 0.5 -0.25 -0.25 0.5 -0.25 0 0.5 -0.25 0.25 0.5 0 -0.25 0.5 0 0 0.5 0 0.25 0.5 0.25 -0.25 0.5 0.25 0 0.5 0.25 0.25 0.25 0.5 -0.25 0.25 0.5 0 0.25 0.5 0.25 0 0.5 -0.25 0 0.5 0 0 0.5 0.25 -0.25 0.5 -0.25 -0.25 0.5 0 -0.25 0.5 0.25 -0.5 0.25 -0.25 -0.5 0.25 0 -0.5 0.25 0.25 -0.5 0 -0.25 -0.5 0 0 -0.5 0 0.25 -0.5 -0.25 -0.25 -0.5 -0.25 0 -0.5 -0.25 0.25 -0.25 0.25 -0.25 -0.25 0.25 0 -0.25 0.25 0.25 -0.25 0 -0.25 -0.25 0 0 -0.25 0 0.25 -0.25 -0.25 -0.25 -0.25 -0.25 0 -0.25 -0.25 0.25 0 0.25 -0.25 0 0.25 0 0 0.25 0.25 0 0 -0.25 0 0 0 0 0 0.25 0 -0.25 -0.25 0 -0.25 0 0 -0.25 0.25 0.25 0.25 -0.25 0.25 0.25 0 0.25 0.25 0.25 0.25 0 -0.25 0.25 0 0 0.25 0 0.25 0.25 -0.25 -0.25 0.25 -0.25 0 0.25 -0.25 0.25 </DataArray>
</Points>
<Cells>
<DataArray type="Int32" Name="connectivity" format="ascii">
44 16 3 17 98 86 41 89 98 86 41 89 99 87 42 90 99 87 42 90 100 88 43 91 100 88 43 91 55 28 7 29 45 44 17 18 101 98 89 92 101 98 89 92 102 99 90 93 102 99 90 93 103 100 91 94 103 100 91 94 54 55 29 30 46 45 18 19 104 101 92 95 104 101 92 95 105 102 93 96 105 102 93 96 106 103 94 97 106 103 94 97 53 54 30 31 8 46 19 0 62 104 95 32 62 104 95 32 63 105 96 33 63 105 96 33 64 106 97 34 64 106 97 34 20 53 31 4 47 15 16 44 107 83 86 98 107 83 86 98 108 84 87 99 108 84 87 99 109 85 88 100 109 85 88 100 58 27 28 55 48 47 44 45 110 107 98 101 110 107 98 101 111 108 99 102 111 108 99 102 112 109 100 103 112 109 100 103 57 58 55 54 49 48 45 46 113 110 101 104 113 110 101 104 114 111 102 105 114 111 102 105 115 112 103 106 115 112 103 106 56 57 54 53 9 49 46 8 65 113 104 62 65 113 104 62 66 114 105 63 66 114 105 63 67 115 106 64 67 115 106 64 21 56 53 20 50 14 15 47 116 80 83 107 116 80 83 107 117 81 84 108 117 81 84 108 118 82 85 109 118 82 85 109 61 26 27 58 51 50 47 48 119 116 107 110 119 116 107 110 120 117 108 111 120 117 108 111 121 118 109 112 121 118 109 112 60 61 58 57 52 51 48 49 122 119 110 113 122 119 110 113 123 120 111 114 123 120 111 114 124 121 112 115 124 121 112 115 59 60 57 56 10 52 49 9 68 122 113 65 68 122 113 65 69 123 114 66 69 123 114 66 70 124 115 67 70 124 115 67 22 59 56 21 13 2 14 50 77 38 80 116 77 38 80 116 78 39 81 117 78 39 81 117 79 40 82 118 79 40 82 118 25 6 26 61 12 13 50 51 74 77 116 119 74 77 116 119 75 78 117 120 75 78 117 120 76 79 118 121 76 79 118 121 24 25 61 60 11 12 51 52 71 74 119 122 71 74 119 122 72 75 120 123 72 75 120 123 73 76 121 124 73 76 121 124 23 24 60 59 1 11 52 10 35 71 122 68 35 71 122 68 36 72 123 69 36 72 123 69 37 73 124 70 37 73 124 70 5 23 59 22 </DataArray>
<DataArray type="Int32" Name="offsets" format="ascii">
8 16 24 32 40 48 56 64 72 80 88 96 104 112 120 128 136 144 152 160 168 176 184 192 200 208 216 224 232 240 248 256 264 272 280 288 296 304 312 320 328 336 344 352 360 368 376 384 392 400 408 416 424 432 440 448 456 464 472 480 488 496 504 512 </DataArray>
<DataArray type="UInt8" Name="types" format="ascii">
12 12 12 12 12 12 12 12 12 12 12 12 12 12 12 12 12 12 12 12 12 12 12 12 12 12 12 12 12 12 12 12 12 12 12 12 12 12 12 12 12 12 12 12 12 12 12 12 12 12 12 12 12 12 12 12 12 12 12 12 12 12 12 12 </DataArray>
</Cells>
<CellData Scalars="scalars">
<DataArray type="Float32" Name="number_density" format="ascii">
1.01632e+13 9.7856e+12 9.9072e+12 9.9072e+12 9.952e+12 1.0176e+13 9.7728e+12 9.4784e+12 1.00672e+13 9.7792e+12 9.856e+12 1.00096e+13 1.02912e+13 9.9328e+12 9.8624e+12 1.02464e+13 9.4976e+12 1.00416e+13 1.00672e+13 1.02144e+13 1.00352e+13 1.01888e+13 9.888e+12 9.8432e+12 9.7856e+12 1.06176e+13 1.01888e+13 9.9584e+12 9.9136e+12 1.0336e+13 9.92e+12 9.4464e+12 9.792e+12 9.9008e+12 1.02336e+13 9.824e+12 1.01312e+13 1.02976e+13 1.02016e+13 1.0208e+13 1.02656e+13 1.03232e+13 1.01312e+13 1.07264e+13 9.76e+12 1.00992e+13 1.0112e+13 9.9456e+12 9.9328e+12 1.00096e+13 9.9328e+12 1.00224e+13 1.008e+13 9.3952e+12 9.8176e+12 1.01952e+13 1.00544e+13 1.02912e+13 1.01632e+13 1.00032e+13 9.2672e+12 9.8624e+12 9.7216e+12 1.01696e+13 </DataArray>
<DataArray type="Float32" Name="potential" format="ascii">
0 0 0 0 0 0 0 0 0 0 0 0 0 0 0 0 0 0 0 0 0 0 0 0 0 0 0 0 0 0 0 0 0 0 0 0 0 0 0 0 0 0 0 0 0 0 0 0 0 0 0 0 0 0 0 0 0 0 0 0 0 0 0 0 </DataArray>
<DataArray type="Float32" Name="temperature" format="ascii">
693.277 697.34 703.47 689.001 695.474 698.741 712.576 677.183 687.138 714.22 685.461 711.983 676.1 681.774 694.581 696.655 672.298 719.891 682.047 685.033 722.428 729.284 708.552 687.151 693.471 715.653 706.111 715.639 721.961 698.849 708.764 685.796 699.225 730.778 711.302 701.027 701.555 720.937 732.713 690.088 714.653 715.848 716.469 710.523 685.854 707.935 701.16 682.708 674.836 678.712 681.41 689.146 688.278 715.185 684.818 712.192 709.824 699.197 727.692 708.111 696.639 702.053 715.768 696.68 </DataArray>
<DataArray type="Float32" Name="velocity" format="ascii">
90.7888 143.121 157.151 144.334 121.127 170.039 216.803 170.296 154 193.314 207.208 180.16 149.982 161.992 160.09 135.654 99.5872 110.751 176.8 174.94 145.982 121.352 174.198 189.333 196.87 172.444 181.767 186.061 155.548 176.609 187.177 141.232 111.217 125.107 161.533 135.618 152.623 105.024 113.531 160.208 166.239 144.438 140.947 142.791 132.532 189.324 163.68 121.432 108.822 116.682 116.042 107.223 129.504 161.183 166.267 133.096 124.711 146.041 146.769 127.933 104.796 123.257 139.266 105.355 </DataArray>
<DataArray type="Float32" Name="E_field" format="ascii">
0 0 0 0 0 0 0 0 0 0 0 0 0 0 0 0 0 0 0 0 0 0 0 0 0 0 0 0 0 0 0 0 0 0 0 0 0 0 0 0 0 0 0 0 0 0 0 0 0 0 0 0 0 0 0 0 0 0 0 0 0 0 0 0 </DataArray>
</CellData>
<PointData Scalars="number_density">
<DataArray type="Float32" Name="number_density" format="ascii">
1.02912e+13 9.2672e+12 9.9328e+12 1.01632e+13 1.02464e+13 1.01696e+13 1.00224e+13 9.9072e+12 1.01024e+13 9.8368e+12 9.5136e+12 9.6608e+12 1.00672e+13 1.00064e+13 9.8624e+12 9.6448e+12 9.8304e+12 1.00576e+13 1.00096e+13 1.01792e+13 9.8464e+12 9.696e+12 1.00576e+13 1.00864e+13 1.00992e+13 1.01088e+13 9.9232e+12 1.00192e+13 1.00608e+13 9.6928e+12 9.744e+12 1.0128e+13 1.0112e+13 9.8976e+12 1.00544e+13 9.5648e+12 9.792e+12 9.9456e+12 9.9712e+12 9.9712e+12 9.9776e+12 9.9744e+12 9.8464e+12 9.9072e+12 9.912e+12 9.96e+12 1.00144e+13 9.864e+12 1.00544e+13 9.9312e+12 9.984e+12 1.01328e+13 9.8368e+12 9.9152e+12 9.8224e+12 9.8608e+12 1.00192e+13 1.0184e+13 1.00224e+13 1.02112e+13 1.02832e+13 1.00624e+13 1.01184e+13 1.00128e+13 9.8688e+12 1.00272e+13 1.01168e+13 9.856e+12 9.7472e+12 9.9488e+12 9.9872e+12 9.8688e+12 1.00096e+13 1.00144e+13 9.9552e+12 9.9168e+12 1.00448e+13 9.8544e+12 9.7888e+12 9.992e+12 9.9088e+12 1.00192e+13 1.00032e+13 9.808e+12 1.00608e+13 1.00848e+13 9.872e+12 9.9504e+12 1.0024e+13 1.00192e+13 9.9104e+12 9.7664e+12 9.9936e+12 9.896e+12 9.7792e+12 1.00176e+13 9.8576e+12 9.9936e+12 9.98e+12 9.9784e+12 9.8848e+12 1.00752e+13 1.00584e+13 9.8744e+12 1.00904e+13 1.00616e+13 9.936e+12 9.9856e+12 1.01024e+13 1.006e+13 1.02056e+13 1.02296e+13 1.01432e+13 1.01376e+13 1.0216e+13 1.00536e+13 9.9424e+12 9.9736e+12 1.00544e+13 1.01048e+13 1.00776e+13 1.01808e+13 9.9904e+12 1.0088e+13 1.01216e+13 </DataArray>
<DataArray type="Float32" Name="potential" format="ascii">
0 0 0 0 0 0 0 0 0 0 0 0 0 0 0 0 0 0 0 0 0 0 0 0 0 0 0 0 0 0 0 0 0 0 0 0 0 0 0 0 0 0 0 0 0 0 0 0 0 0 0 0 0 0 0 0 0 0 0 0 0 0 0 0 0 0 0 0 0 0 0 0 0 0 0 0 0 0 0 0 0 0 0 0 0 0 0 0 0 0 0 0 0 0 0 0 0 0 0 0 0 0 0 0 0 0 0 0 0 0 0 0 0 0 0 0 0 0 0 0 0 0 0 0 0 </DataArray>
<DataArray type="Float32" Name="temperature" format="ascii">
676.1 696.639 674.836 693.277 696.655 696.68 689.146 689.001 699.03 703.907 691.246 703.231 699.051 681.557 687.031 685.762 682.788 694.376 691.306 681.619 691.225 684.252 689.694 702.395 710.151 700.669 695.087 693.03 687.017 683.092 694.583 704.319 678.937 688.178 695.618 699.346 708.911 706.224 676.774 680.061 685.278 695.309 700.405 696.236 695.869 699.628 694.667 698.877 708.027 703.985 690.974 703.577 701.742 702.518 697.989 684.592 698.667 700.85 690.825 699.506 705.228 698.113 694.671 695.992 696.449 703.65 704.177 694.607 698.12 706.729 699.079 701.928 711.177 712.063 703.121 706.723 708.203 689.253 690.031 691.892 695.888 700.551 695.721 705.548 711.004 694.852 695.702 700.687 689.888 696.208 703.032 695.558 698.893 702.75 696.801 689.808 694.009 697.17 703.592 706.488 693.127 707.051 708.825 700.582 698.646 700.677 700.624 712.05 716.938 699.739 714.229 718.196 708.406 706.778 708.849 703.396 701.188 706.982 700.337 708.185 714.107 710.326 704 710.765 707.389 </DataArray>
<DataArray type="Float32" Name="velocity" format="ascii">
149.982 104.796 108.822 90.7888 135.654 105.355 107.223 144.334 151.355 140.188 115.536 110.578 125.072 114.602 108.396 96.9537 93.7787 103.011 136.388 150.198 135.066 125.847 106.061 112.411 125.823 118.038 116.068 150.179 156.523 156.277 171.074 156.081 150.412 158.204 143.272 112.719 128.297 121.86 111.636 113.818 109.283 113.472 146.227 149.777 108.325 149.34 159.674 114.057 157.104 155.739 114.629 133.074 124.282 154.711 172.052 165.33 136.077 150.884 157.429 115.459 127.808 125.333 155.416 161.844 148.677 155.243 164.002 141.082 131.064 145.209 123.141 118.986 130.815 121.671 133.63 142.448 132.383 123.404 130.939 124.595 110.507 120.568 121.15 94.7979 124.514 151.291 102.985 135.446 157.363 121.237 165.556 168.468 147.008 182.585 183.509 157.517 171.916 162.664 108.812 140.674 166.469 141.555 150.022 170.191 160.4 162.479 159.692 90.6607 85.1183 141.615 121.397 41.4813 120.831 151.056 135.501 135.04 112.161 110.93 121.568 123.317 103.373 116.667 129.007 130.131 119.372 </DataArray>
<DataArray type="Float32" Name="E_field" format="ascii">
0 0 0 0 0 0 0 0 0 0 0 0 0 0 0 0 0 0 0 0 0 0 0 0 0 0 0 0 0 0 0 0 0 0 0 0 0 0 0 0 0 0 0 0 0 0 0 0 0 0 0 0 0 0 0 0 0 0 0 0 0 0 0 0 0 0 0 0 0 0 0 0 0 0 0 0 0 0 0 0 0 0 0 0 0 0 0 0 0 0 0 0 0 0 0 0 0 0 0 0 0 0 0 0 0 0 0 0 0 0 0 0 0 0 0 0 0 0 0 0 0 0 0 0 0 </DataArray>
</PointData>
</Piece>
</UnstructuredGrid>
</VTKFile>
