<VTKFile type="UnstructuredGrid" version="0.1" byte_order="LittleEndian">
<UnstructuredGrid>
<Piece NumberOfPoints="125" NumberOfCells="64">
<Points>
<DataArray type="Float32" NumberOfComponents="3" format="ascii">
-0.5 -0.5 -0.5 0.5 -0.5 -0.5 0.5 0.5 -0.5 -0.5 0.5 -0.5 -0.5 -0.5 0.5 0.5 -0.5 0.5 0.5 0.5 0.5 -0.5 0.5 0.5 -0.25 -0.5 -0.5 0 -0.5 -0.5 0.25 -0.5 -0.5 0.5 -0.25 -0.5 0.5 0 -0.5 0.5 0.25 -0.5 0.25 0.5 -0.5 0 0.5 -0.5 -0.25 0.5 -0.5 -0.5 0.25 -0.5 -0.5 0 -0.5 -0.5 -0.25 -0.5 -0.25 -0.5 0.5 0 -0.5 0.5 0.25 -0.5 0.5 0.5 -0.25 0.5 0.5 0 0.5 0.5 0.25 0.5 0.25 0.5 0.5 0 0.5 0.5 -0.25 0.5 0.5 -0.5 0.25 0.5 -0.5 0 0.5 -0.5 -0.25 0.5 -0.5 -0.5 -0.25 -0.5 -0.5 0 -0.5 -0.5 0.25 0.5 -0.5 -0.25 0.5 -0.5 0 0.5 -0.5 0.25 0.5 0.5 -0.25 0.5 0.5 0 0.5 0.5 0.25 -0.5 0.5 -0.25 -0.5 0.5 0 -0.5 0.5 0.25 -0.25 0.25 -0.5 -0.25 0 -0.5 -0.25 -0.25 -0.5 0 0.25 -0.5 0 0 -0.5 0 -0.25 -0.5 0.25 0.25 -0.5 0.25 0 -0.5 0.25 -0.25 -0.5 -0.25 -0.25 0.5 -0.25 0 0.5 -0.25 0.25 0.5 0 -0.25 0.5 0 0 0.5 0 0.25 0.5 0.25 -0.25 0.5 0.25 0 0.5 0.25 0.25 0.5 -0.25 -0.5 -0.25 -0.25 -0.5 0 -0.25 -0.5 0.25 0 -0.5 -0.25 0 -0.5 0 0 -0.5 0.25 0.25 -0.5 -0.25 0.25 -0.5 0 0.25 -0.5 0.25 0.5 -0.25 -0.25 0.5 -0.25 0 0.5 -0.25 0.25 0.5 0 -0.25 0.5 0 0 0.5 0 0.25 0.5 0.25 -0.25 0.5 0.25 0 0.5 0.25 0.25 0.25 0.5 -0.25 0.25 0.5 0 0.25 0.5 0.25 0 0.5 -0.25 0 0.5 0 0 0.5 0.25 -0.25 0.5 -0.25 -0.25 0.5 0 -0.25 0.5 0.25 -0.5 0.25 -0.25 -0.5 0.25 0 -0.5 0.25 0.25 -0.5 0 -0.25 -0.5 0 0 -0.5 0 0.25 -0.5 -0.25 -0.25 -0.5 -0.25 0 -0.5 -0.25 0.25 -0.25 0.25 -0.25 -0.25 0.25 0 -0.25 0.25 0.25 -0.25 0 -0.25 -0.25 0 0 -0.25 0 0.25 -0.25 -0.25 -0.25 -0.25 -0.25 0 -0.25 -0.25 0.25 0 0.25 -0.25 0 0.25 0 0 0.25 0.25 0 0 -0.25 0 0 0 0 0 0.25 0 -0.25 -0.25 0 -0.25 0 0 -0.25 0.25 0.25 0.25 -0.25 0.25 0.25 0 0.25 0.25 0.25 0.25 0 -0.25 0.25 0 0 0.25 0 0.25 0.25 -0.25 -0.25 0.25 -0.25 0 0.25 -0.25 0.25 </DataArray>
</Points>
<Cells>
<DataArray type="Int32" Name="connectivity" format="ascii">
44 16 3 17 98 86 41 89 98 86 41 89 99 87 42 90 99 87 42 90 100 88 43 91 100 88 43 91 55 28 7 29 45 44 17 18 101 98 89 92 101 98 89 92 102 99 90 93 102 99 90 93 103 100 91 94 103 100 91 94 54 55 29 30 46 45 18 19 104 101 92 95 104 101 92 95 105 102 93 96 105 102 93 96 106 103 94 97 106 103 94 97 53 54 30 31 8 46 19 0 62 104 95 32 62 104 95 32 63 105 96 33 63 105 96 33 64 106 97 34 64 106 97 34 20 53 31 4 47 15 16 44 107 83 86 98 107 83 86 98 108 84 87 99 108 84 87 99 109 85 88 100 109 85 88 100 58 27 28 55 48 47 44 45 110 107 98 101 110 107 98 101 111 108 99 102 111 108 99 102 112 109 100 103 112 109 100 103 57 58 55 54 49 48 45 46 113 110 101 104 113 110 101 104 114 111 102 105 114 111 102 105 115 112 103 106 115 112 103 106 56 57 54 53 9 49 46 8 65 113 104 62 65 113 104 62 66 114 105 63 66 114 105 63 67 115 106 64 67 115 106 64 21 56 53 20 50 14 15 47 116 80 83 107 116 80 83 107 117 81 84 108 117 81 84 108 118 82 85 109 118 82 85 109 61 26 27 58 51 50 47 48 119 116 107 110 119 116 107 110 120 117 108 111 120 117 108 111 121 118 109 112 121 118 109 112 60 61 58 57 52 51 48 49 122 119 110 113 122 119 110 113 123 120 111 114 123 120 111 114 124 121 112 115 124 121 112 115 59 60 57 56 10 52 49 9 68 122 113 65 68 122 113 65 69 123 114 66 69 123 114 66 70 124 115 67 70 124 115 67 22 59 56 21 13 2 14 50 77 38 80 116 77 38 80 116 78 39 81 117 78 39 81 117 79 40 82 118 79 40 82 118 25 6 26 61 12 13 50 51 74 77 116 119 74 77 116 119 75 78 117 120 75 78 117 120 76 79 118 121 76 79 118 121 24 25 61 60 11 12 51 52 71 74 119 122 71 74 119 122 72 75 120 123 72 75 120 123 73 76 121 124 73 76 121 124 23 24 60 59 1 11 52 10 35 71 122 68 35 71 122 68 36 72 123 69 36 72 123 69 37 73 124 70 37 73 124 70 5 23 59 22 </DataArray>
<DataArray type="Int32" Name="offsets" format="ascii">
8 16 24 32 40 48 56 64 72 80 88 96 104 112 120 128 136 144 152 160 168 176 184 192 200 208 216 224 232 240 248 256 264 272 280 288 296 304 312 320 328 336 344 352 360 368 376 384 392 400 408 416 424 432 440 448 456 464 472 480 488 496 504 512 </DataArray>
<DataArray type="UInt8" Name="types" format="ascii">
12 12 12 12 12 12 12 12 12 12 12 12 12 12 12 12 12 12 12 12 12 12 12 12 12 12 12 12 12 12 12 12 12 12 12 12 12 12 12 12 12 12 12 12 12 12 12 12 12 12 12 12 12 12 12 12 12 12 12 12 12 12 12 12 </DataArray>
</Cells>
<CellData Scalars="scalars">
<DataArray type="Float32" Name="number_density" format="ascii">
8.3008e+12 8.736e+12 8.0768e+12 7.136e+12 8.5952e+12 9.8368e+12 8.864e+12 7.6224e+12 7.84e+12 9.4464e+12 9.1648e+12 7.6672e+12 7.6224e+12 7.9552e+12 8.224e+12 7.7248e+12 9.3696e+12 1.11488e+13 1.02144e+13 7.9232e+12 1.00352e+13 1.73888e+13 1.67808e+13 9.3952e+12 9.4016e+12 1.60512e+13 1.64736e+13 9.824e+12 8.1536e+12 9.7536e+12 1.01248e+13 8.4928e+12 9.0304e+12 1.09056e+13 1.03488e+13 8.5376e+12 1.01824e+13 1.77728e+13 1.696e+13 1.0816e+13 1.01568e+13 1.63904e+13 1.74144e+13 1.0976e+13 7.7952e+12 1.00288e+13 1.04128e+13 8.608e+12 7.9104e+12 8.5312e+12 8.8512e+12 8.1984e+12 8.5632e+12 9.5168e+12 9.9264e+12 8.7168e+12 8.2944e+12 1.03296e+13 1.03872e+13 8.7808e+12 7.4816e+12 8.3456e+12 8.128e+12 8.3584e+12 </DataArray>
<DataArray type="Float32" Name="potential" format="ascii">
0 0 0 0 0 0 0 0 0 0 0 0 0 0 0 0 0 0 0 0 0 0 0 0 0 0 0 0 0 0 0 0 0 0 0 0 0 0 0 0 0 0 0 0 0 0 0 0 0 0 0 0 0 0 0 0 0 0 0 0 0 0 0 0 </DataArray>
<DataArray type="Float32" Name="temperature" format="ascii">
689.68 722.729 683.766 634.461 749.437 888.817 848.325 720.275 662.524 872.69 845.544 725.798 619.4 716.699 711.594 650.78 748.6 883.824 859.699 674.271 840.927 1231.28 1159.17 835.229 811.878 1116.34 1153.9 888.47 739.048 830.447 911.784 703.324 707.073 879.212 900.457 718.168 858.155 1183.52 1226.35 880.469 823.1 1169.42 1201.23 879.886 700.637 857.669 871.664 732.524 639.034 679.425 676.571 634.64 677.407 834.881 856.248 732.096 716.624 840.725 851.067 712.598 638.502 716.642 714.532 636.969 </DataArray>
<DataArray type="Float32" Name="velocity" format="ascii">
311.928 473.438 592.557 499.313 467.979 645.637 789.66 659.307 575.272 726.369 769.492 618.579 462.444 588.472 580.969 444.307 355.641 432.776 643.073 601.66 563.659 495.433 701.339 756.102 718.879 721.38 706.53 704.246 581.153 681.606 661.315 531.627 417.086 475.54 544.182 499.662 529.621 407.962 443.179 583.785 622.597 582.636 497.331 551.35 513.459 640.471 582.184 455.165 368.073 480.661 467.76 375.768 475.198 600.989 588.841 474.414 491.097 587.516 567.111 450.148 369.795 484.466 462.247 368.269 </DataArray>
<DataArray type="Float32" Name="E_field" format="ascii">
0 0 0 0 0 0 0 0 0 0 0 0 0 0 0 0 0 0 0 0 0 0 0 0 0 0 0 0 0 0 0 0 0 0 0 0 0 0 0 0 0 0 0 0 0 0 0 0 0 0 0 0 0 0 0 0 0 0 0 0 0 0 0 0 </DataArray>
</CellData>
<PointData Scalars="number_density">
<DataArray type="Float32" Name="number_density" format="ascii">
7.6224e+12 7.4816e+12 7.9104e+12 8.3008e+12 7.7248e+12 8.3584e+12 8.1984e+12 7.136e+12 7.888e+12 7.9744e+12 7.6384e+12 7.888e+12 8.4288e+12 8.2368e+12 8.4704e+12 9.2e+12 8.8352e+12 8.448e+12 8.2176e+12 7.7312e+12 8.1088e+12 8.5504e+12 8.4832e+12 8.5696e+12 8.7488e+12 8.4576e+12 8.368e+12 8.2304e+12 7.5296e+12 7.3792e+12 7.6448e+12 7.696e+12 7.7888e+12 8.0896e+12 7.9744e+12 7.9136e+12 8.2368e+12 8.2432e+12 8.2208e+12 8.6912e+12 8.5248e+12 8.5184e+12 8.4064e+12 7.6064e+12 9.0752e+12 8.968e+12 8.2544e+12 9.6544e+12 9.944e+12 8.8768e+12 8.9216e+12 9.2992e+12 8.432e+12 8.4272e+12 8.6272e+12 8.0192e+12 9.4752e+12 1.02528e+13 9.168e+12 9.1808e+12 9.8224e+12 9.0672e+12 8.3712e+12 9.0144e+12 8.6416e+12 8.9328e+12 1.008e+13 9.4096e+12 8.4128e+12 9.2288e+12 8.8768e+12 8.6128e+12 9.2976e+12 8.9136e+12 9.176e+12 1.004e+13 9.4528e+12 8.6304e+12 9.2064e+12 8.9232e+12 9.0944e+12 9.6592e+12 8.984e+12 1.01136e+13 1.06544e+13 9.256e+12 9.3888e+12 9.544e+12 8.3376e+12 8.8672e+12 8.8784e+12 7.9248e+12 8.9296e+12 9.328e+12 8.3296e+12 8.216e+12 8.6976e+12 8.1952e+12 1.04264e+13 1.13808e+13 9.5016e+12 1.10744e+13 1.30008e+13 1.0724e+13 9.528e+12 1.08992e+13 9.712e+12 1.19792e+13 1.394e+13 1.1372e+13 1.34224e+13 1.6904e+13 1.358e+13 1.09664e+13 1.33312e+13 1.15408e+13 1.03016e+13 1.16016e+13 1.02944e+13 1.14008e+13 1.35872e+13 1.17472e+13 9.8528e+12 1.14296e+13 1.03832e+13 </DataArray>
<DataArray type="Float32" Name="potential" format="ascii">
0 0 0 0 0 0 0 0 0 0 0 0 0 0 0 0 0 0 0 0 0 0 0 0 0 0 0 0 0 0 0 0 0 0 0 0 0 0 0 0 0 0 0 0 0 0 0 0 0 0 0 0 0 0 0 0 0 0 0 0 0 0 0 0 0 0 0 0 0 0 0 0 0 0 0 0 0 0 0 0 0 0 0 0 0 0 0 0 0 0 0 0 0 0 0 0 0 0 0 0 0 0 0 0 0 0 0 0 0 0 0 0 0 0 0 0 0 0 0 0 0 0 0 0 0 </DataArray>
<DataArray type="Float32" Name="temperature" format="ascii">
619.4 638.502 639.034 689.68 650.78 636.969 634.64 634.461 679.224 719.842 669.569 677.563 697.015 658.22 673.054 727.837 719.14 719.558 705.98 640.962 677.052 717.924 684.746 674.783 722.347 683.368 676.404 696.22 654.366 677.368 723.036 688.289 668.05 714.146 681.187 677.572 715.587 675.75 659.229 677.998 655.605 706.204 703.248 659.113 757.161 766.191 708.212 788.689 833.515 768.665 720.417 768.821 719.715 742.093 792.443 716.059 801.051 871.013 777.034 740.494 801.262 741.343 726.398 792.631 744.37 781.95 867.891 804.824 728.362 790.127 738.922 728.123 780.741 728.791 767.409 845.73 788.002 707.687 761.781 724.889 726.186 783.916 732.459 804.677 880.798 788.149 761.208 787.504 713.049 762.666 785.909 721.707 793.367 863.844 784.985 717.828 786.632 733.429 844.412 909.701 801.899 896.737 1014.51 897.089 796.129 894.876 823.899 916.574 1040.44 906.727 1004.33 1180.15 1028.09 881.068 1014.06 917.849 807.338 904.583 828.125 887.979 1020.43 917.494 807.915 902.87 825.059 </DataArray>
<DataArray type="Float32" Name="velocity" format="ascii">
462.444 369.795 368.073 311.928 444.307 368.269 375.768 499.313 518.463 530.934 432.109 423.229 469.159 414.598 387.063 357.029 325.329 380.964 513.503 516.269 484.114 464.707 401.891 402.616 437.22 419.868 423.873 527.999 544.167 575.849 621.805 523.655 516.714 567.201 502.314 424.552 456.671 410.235 420.853 455.591 414.308 381.899 511.934 543.388 405.481 558.847 575.656 411.036 546.864 581.719 428.077 497.498 480.622 557.637 652.286 616.763 506.431 567.774 568.455 429.815 462.833 458.271 564.456 592.275 536.173 574.657 573.054 510.703 483.339 499.315 444.139 469.268 493.903 445.272 506.207 522.834 478.803 465.7 494.643 456.195 420.149 447.092 447.228 354.063 424.221 531.135 365.436 494.851 571.543 449.331 584.875 625.728 572.177 660.687 677.604 573.831 627.297 582.963 421.322 522.44 632.916 561.089 575.432 658.156 607.992 617.207 592.196 343.735 302.712 522.381 449.74 183.622 463.869 580.105 504.44 497.258 435.384 413.899 451.819 473.994 378.765 429.69 503.13 477.835 445.924 </DataArray>
<DataArray type="Float32" Name="E_field" format="ascii">
0 0 0 0 0 0 0 0 0 0 0 0 0 0 0 0 0 0 0 0 0 0 0 0 0 0 0 0 0 0 0 0 0 0 0 0 0 0 0 0 0 0 0 0 0 0 0 0 0 0 0 0 0 0 0 0 0 0 0 0 0 0 0 0 0 0 0 0 0 0 0 0 0 0 0 0 0 0 0 0 0 0 0 0 0 0 0 0 0 0 0 0 0 0 0 0 0 0 0 0 0 0 0 0 0 0 0 0 0 0 0 0 0 0 0 0 0 0 0 0 0 0 0 0 0 </DataArray>
</PointData>
</Piece>
</UnstructuredGrid>
</VTKFile>
