<VTKFile type="UnstructuredGrid" version="0.1" byte_order="LittleEndian">
<UnstructuredGrid>
<Piece NumberOfPoints="125" NumberOfCells="64">
<Points>
<DataArray type="Float32" NumberOfComponents="3" format="ascii">
-0.5 -0.5 -0.5 0.5 -0.5 -0.5 0.5 0.5 -0.5 -0.5 0.5 -0.5 -0.5 -0.5 0.5 0.5 -0.5 0.5 0.5 0.5 0.5 -0.5 0.5 0.5 -0.25 -0.5 -0.5 0 -0.5 -0.5 0.25 -0.5 -0.5 0.5 -0.25 -0.5 0.5 0 -0.5 0.5 0.25 -0.5 0.25 0.5 -0.5 0 0.5 -0.5 -0.25 0.5 -0.5 -0.5 0.25 -0.5 -0.5 0 -0.5 -0.5 -0.25 -0.5 -0.25 -0.5 0.5 0 -0.5 0.5 0.25 -0.5 0.5 0.5 -0.25 0.5 0.5 0 0.5 0.5 0.25 0.5 0.25 0.5 0.5 0 0.5 0.5 -0.25 0.5 0.5 -0.5 0.25 0.5 -0.5 0 0.5 -0.5 -0.25 0.5 -0.5 -0.5 -0.25 -0.5 -0.5 0 -0.5 -0.5 0.25 0.5 -0.5 -0.25 0.5 -0.5 0 0.5 -0.5 0.25 0.5 0.5 -0.25 0.5 0.5 0 0.5 0.5 0.25 -0.5 0.5 -0.25 -0.5 0.5 0 -0.5 0.5 0.25 -0.25 0.25 -0.5 -0.25 0 -0.5 -0.25 -0.25 -0.5 0 0.25 -0.5 0 0 -0.5 0 -0.25 -0.5 0.25 0.25 -0.5 0.25 0 -0.5 0.25 -0.25 -0.5 -0.25 -0.25 0.5 -0.25 0 0.5 -0.25 0.25 0.5 0 -0.25 0.5 0 0 0.5 0 0.25 0.5 0.25 -0.25 0.5 0.25 0 0.5 0.25 0.25 0.5 -0.25 -0.5 -0.25 -0.25 -0.5 0 -0.25 -0.5 0.25 0 -0.5 -0.25 0 -0.5 0 0 -0.5 0.25 0.25 -0.5 -0.25 0.25 -0.5 0 0.25 -0.5 0.25 0.5 -0.25 -0.25 0.5 -0.25 0 0.5 -0.25 0.25 0.5 0 -0.25 0.5 0 0 0.5 0 0.25 0.5 0.25 -0.25 0.5 0.25 0 0.5 0.25 0.25 0.25 0.5 -0.25 0.25 0.5 0 0.25 0.5 0.25 0 0.5 -0.25 0 0.5 0 0 0.5 0.25 -0.25 0.5 -0.25 -0.25 0.5 0 -0.25 0.5 0.25 -0.5 0.25 -0.25 -0.5 0.25 0 -0.5 0.25 0.25 -0.5 0 -0.25 -0.5 0 0 -0.5 0 0.25 -0.5 -0.25 -0.25 -0.5 -0.25 0 -0.5 -0.25 0.25 -0.25 0.25 -0.25 -0.25 0.25 0 -0.25 0.25 0.25 -0.25 0 -0.25 -0.25 0 0 -0.25 0 0.25 -0.25 -0.25 -0.25 -0.25 -0.25 0 -0.25 -0.25 0.25 0 0.25 -0.25 0 0.25 0 0 0.25 0.25 0 0 -0.25 0 0 0 0 0 0.25 0 -0.25 -0.25 0 -0.25 0 0 -0.25 0.25 0.25 0.25 -0.25 0.25 0.25 0 0.25 0.25 0.25 0.25 0 -0.25 0.25 0 0 0.25 0 0.25 0.25 -0.25 -0.25 0.25 -0.25 0 0.25 -0.25 0.25 </DataArray>
</Points>
<Cells>
<DataArray type="Int32" Name="connectivity" format="ascii">
44 16 3 17 98 86 41 89 98 86 41 89 99 87 42 90 99 87 42 90 100 88 43 91 100 88 43 91 55 28 7 29 45 44 17 18 101 98 89 92 101 98 89 92 102 99 90 93 102 99 90 93 103 100 91 94 103 100 91 94 54 55 29 30 46 45 18 19 104 101 92 95 104 101 92 95 105 102 93 96 105 102 93 96 106 103 94 97 106 103 94 97 53 54 30 31 8 46 19 0 62 104 95 32 62 104 95 32 63 105 96 33 63 105 96 33 64 106 97 34 64 106 97 34 20 53 31 4 47 15 16 44 107 83 86 98 107 83 86 98 108 84 87 99 108 84 87 99 109 85 88 100 109 85 88 100 58 27 28 55 48 47 44 45 110 107 98 101 110 107 98 101 111 108 99 102 111 108 99 102 112 109 100 103 112 109 100 103 57 58 55 54 49 48 45 46 113 110 101 104 113 110 101 104 114 111 102 105 114 111 102 105 115 112 103 106 115 112 103 106 56 57 54 53 9 49 46 8 65 113 104 62 65 113 104 62 66 114 105 63 66 114 105 63 67 115 106 64 67 115 106 64 21 56 53 20 50 14 15 47 116 80 83 107 116 80 83 107 117 81 84 108 117 81 84 108 118 82 85 109 118 82 85 109 61 26 27 58 51 50 47 48 119 116 107 110 119 116 107 110 120 117 108 111 120 117 108 111 121 118 109 112 121 118 109 112 60 61 58 57 52 51 48 49 122 119 110 113 122 119 110 113 123 120 111 114 123 120 111 114 124 121 112 115 124 121 112 115 59 60 57 56 10 52 49 9 68 122 113 65 68 122 113 65 69 123 114 66 69 123 114 66 70 124 115 67 70 124 115 67 22 59 56 21 13 2 14 50 77 38 80 116 77 38 80 116 78 39 81 117 78 39 81 117 79 40 82 118 79 40 82 118 25 6 26 61 12 13 50 51 74 77 116 119 74 77 116 119 75 78 117 120 75 78 117 120 76 79 118 121 76 79 118 121 24 25 61 60 11 12 51 52 71 74 119 122 71 74 119 122 72 75 120 123 72 75 120 123 73 76 121 124 73 76 121 124 23 24 60 59 1 11 52 10 35 71 122 68 35 71 122 68 36 72 123 69 36 72 123 69 37 73 124 70 37 73 124 70 5 23 59 22 </DataArray>
<DataArray type="Int32" Name="offsets" format="ascii">
8 16 24 32 40 48 56 64 72 80 88 96 104 112 120 128 136 144 152 160 168 176 184 192 200 208 216 224 232 240 248 256 264 272 280 288 296 304 312 320 328 336 344 352 360 368 376 384 392 400 408 416 424 432 440 448 456 464 472 480 488 496 504 512 </DataArray>
<DataArray type="UInt8" Name="types" format="ascii">
12 12 12 12 12 12 12 12 12 12 12 12 12 12 12 12 12 12 12 12 12 12 12 12 12 12 12 12 12 12 12 12 12 12 12 12 12 12 12 12 12 12 12 12 12 12 12 12 12 12 12 12 12 12 12 12 12 12 12 12 12 12 12 12 </DataArray>
</Cells>
<CellData Scalars="scalars">
<DataArray type="Float32" Name="number_density" format="ascii">
9.7472e+12 9.4848e+12 9.5552e+12 9.1648e+12 9.7856e+12 1.00288e+13 9.6832e+12 9.1008e+12 9.696e+12 9.7216e+12 9.7472e+12 9.5104e+12 9.6128e+12 9.4848e+12 9.7216e+12 9.4336e+12 9.4144e+12 1.04e+13 1.008e+13 9.728e+12 9.9584e+12 1.17952e+13 1.15904e+13 9.8176e+12 9.664e+12 1.1872e+13 1.13856e+13 9.9136e+12 9.4144e+12 1.01568e+13 9.8944e+12 9.3824e+12 9.5616e+12 1.03232e+13 1.008e+13 9.5936e+12 1.01568e+13 1.18528e+13 1.14688e+13 1.03424e+13 1.008e+13 1.1552e+13 1.1776e+13 1.06176e+13 9.6256e+12 1.02016e+13 1.03936e+13 9.6704e+12 9.472e+12 9.5168e+12 9.6896e+12 9.5872e+12 9.6832e+12 9.8112e+12 1.00928e+13 9.7472e+12 9.6768e+12 1.02784e+13 1.03104e+13 9.7792e+12 8.768e+12 9.3888e+12 9.2864e+12 9.6704e+12 </DataArray>
<DataArray type="Float32" Name="potential" format="ascii">
0 0 0 0 0 0 0 0 0 0 0 0 0 0 0 0 0 0 0 0 0 0 0 0 0 0 0 0 0 0 0 0 0 0 0 0 0 0 0 0 0 0 0 0 0 0 0 0 0 0 0 0 0 0 0 0 0 0 0 0 0 0 0 0 </DataArray>
<DataArray type="Float32" Name="temperature" format="ascii">
684.609 696.739 695.005 672.287 702.346 744.001 737.606 672.119 681.043 755.125 728.886 719.177 659.847 671.308 704.243 673.345 696.702 757.929 740.605 668.128 748.278 842.427 824.292 710.953 716.63 825.339 818.418 727.45 726.606 724.099 744.79 704.244 689.364 752.867 752.707 702.5 732.555 824.791 845.05 733.229 742.574 807.35 826.225 743.457 680.265 762.855 758.907 699.081 660.149 683.811 674.674 671.24 683.809 728.408 738.375 717.02 702.02 741.844 752.239 713.178 684.611 685.304 710.161 663.962 </DataArray>
<DataArray type="Float32" Name="velocity" format="ascii">
196.314 282.856 331.898 295.834 260.899 365.672 463.285 368.896 328.631 418.64 443.316 366.35 279.122 342.296 339.142 263.658 211.827 250.156 368.044 357.253 317.122 260.711 378.771 425.626 403.472 394.374 377.84 401.689 329.049 380.372 383.494 293.148 227.433 275.727 317.215 287.761 302.572 245.969 253.461 327.785 351.798 314.422 282.476 319.871 296.94 380.387 347.67 260.27 215.046 263.604 260.599 218.402 283.811 344.131 340.833 275.682 272.483 330.112 318.465 259.263 217.526 274.909 265.248 218.984 </DataArray>
<DataArray type="Float32" Name="E_field" format="ascii">
0 0 0 0 0 0 0 0 0 0 0 0 0 0 0 0 0 0 0 0 0 0 0 0 0 0 0 0 0 0 0 0 0 0 0 0 0 0 0 0 0 0 0 0 0 0 0 0 0 0 0 0 0 0 0 0 0 0 0 0 0 0 0 0 </DataArray>
</CellData>
<PointData Scalars="number_density">
<DataArray type="Float32" Name="number_density" format="ascii">
9.6128e+12 8.768e+12 9.472e+12 9.7472e+12 9.4336e+12 9.6704e+12 9.5872e+12 9.1648e+12 9.5136e+12 9.52e+12 9.1968e+12 9.2224e+12 9.68e+12 9.5776e+12 9.5168e+12 9.488e+12 9.5808e+12 9.7664e+12 9.7408e+12 9.6544e+12 9.408e+12 9.5264e+12 9.6704e+12 9.7248e+12 9.7632e+12 9.6672e+12 9.5904e+12 9.6608e+12 9.4464e+12 9.1328e+12 9.3056e+12 9.472e+12 9.5488e+12 9.6032e+12 9.5776e+12 9.0784e+12 9.3376e+12 9.4784e+12 9.4944e+12 9.6032e+12 9.6384e+12 9.616e+12 9.52e+12 9.36e+12 9.7264e+12 9.776e+12 9.5968e+12 9.7728e+12 9.9648e+12 9.696e+12 9.7184e+12 9.8992e+12 9.5376e+12 9.56e+12 9.5856e+12 9.4528e+12 9.896e+12 1.01728e+13 9.8704e+12 9.9344e+12 1.01216e+13 9.8176e+12 9.6672e+12 9.8144e+12 9.608e+12 9.8496e+12 1.01616e+13 9.8352e+12 9.496e+12 9.8176e+12 9.7552e+12 9.528e+12 9.816e+12 9.7616e+12 9.8624e+12 1.01232e+13 9.9824e+12 9.6208e+12 9.7776e+12 9.7792e+12 9.7184e+12 9.9024e+12 9.7376e+12 9.9248e+12 1.02208e+13 9.8704e+12 9.7616e+12 9.88e+12 9.632e+12 9.7616e+12 9.688e+12 9.376e+12 9.808e+12 9.7952e+12 9.5104e+12 9.6288e+12 9.6688e+12 9.6032e+12 1.00768e+13 1.03272e+13 9.84e+12 1.03152e+13 1.0728e+13 1.00936e+13 9.9528e+12 1.0248e+13 9.8736e+12 1.04328e+13 1.09488e+13 1.03376e+13 1.08664e+13 1.16616e+13 1.0864e+13 1.03208e+13 1.0904e+13 1.03792e+13 1.00472e+13 1.03544e+13 1.00752e+13 1.03864e+13 1.08928e+13 1.05168e+13 9.9464e+12 1.03984e+13 1.0188e+13 </DataArray>
<DataArray type="Float32" Name="potential" format="ascii">
0 0 0 0 0 0 0 0 0 0 0 0 0 0 0 0 0 0 0 0 0 0 0 0 0 0 0 0 0 0 0 0 0 0 0 0 0 0 0 0 0 0 0 0 0 0 0 0 0 0 0 0 0 0 0 0 0 0 0 0 0 0 0 0 0 0 0 0 0 0 0 0 0 0 0 0 0 0 0 0 0 0 0 0 0 0 0 0 0 0 0 0 0 0 0 0 0 0 0 0 0 0 0 0 0 0 0 0 0 0 0 0 0 0 0 0 0 0 0 0 0 0 0 0 0 </DataArray>
<DataArray type="Float32" Name="temperature" format="ascii">
659.847 684.611 660.149 684.609 673.345 663.962 671.24 672.287 693.226 703.435 682.438 693.315 692.914 671.979 674.757 693.033 690.655 693.477 691.694 670.445 688.794 701.663 681.521 688.57 715.099 694.13 686.87 685.314 670.207 672.203 695.648 696.261 665.578 687.776 688.794 684.957 697.733 687.061 671.98 679.242 672.957 690.674 695.872 683.646 707.984 712.074 696.032 716.725 735.009 716.519 691.469 715.239 702.368 706.054 707.425 680.872 718.558 728.772 703.702 704.919 726.721 705.997 695.465 711.11 706.656 723.456 747.663 726.755 703.259 729.307 708.028 703.445 722.387 709.885 714.02 740.216 730.203 689.044 706.317 700.327 696.548 716.015 700.28 724.216 751.027 715.985 708.995 722.57 694.006 706.923 718.338 694.254 720.629 741.405 714.447 691.831 714.891 706.413 734.129 754.825 715.124 751.899 784.512 742.363 720 746.526 727.569 755.614 792.583 747.183 779.993 826.736 778.634 748.215 783.498 752.822 719.469 750.085 729.349 745.419 783.035 758.597 725.853 755.611 733.401 </DataArray>
<DataArray type="Float32" Name="velocity" format="ascii">
279.122 217.526 215.046 196.314 263.658 218.984 218.402 295.834 302.342 303.722 252.005 238.615 273.927 241.409 218.701 203.318 199.041 222.803 291.062 301.773 274.676 266.483 229.854 234.529 255.951 243.131 244.74 312.109 322.035 330.302 359.759 309.782 303.211 332.248 294.753 243.514 262.908 239.935 236.731 253.775 234.155 232.546 298.315 311.069 232.76 314.684 329.498 238.088 317.418 329.526 241.845 284.65 271.196 319.363 371.773 352.614 291.317 328.908 330.811 247.467 267.127 260.455 322.769 340.502 307.209 330.2 339.703 296.003 280.572 295.713 255.681 262.761 280.274 254.513 291.472 302.067 276.255 265.615 282.905 260.906 235.892 254.918 254.718 202.955 256.333 311.488 216.044 286.703 328.081 260.132 341.473 357.747 324.474 389.202 392.848 330.729 365.75 338.433 235.26 297.403 356.226 310.503 324.083 368.735 342.898 348.746 334.042 194.615 178.506 299.341 254.69 91.6701 261.242 326.188 287.781 282.292 245.977 238.603 255.395 269.605 219.534 246.308 281.862 272.885 253.26 </DataArray>
<DataArray type="Float32" Name="E_field" format="ascii">
0 0 0 0 0 0 0 0 0 0 0 0 0 0 0 0 0 0 0 0 0 0 0 0 0 0 0 0 0 0 0 0 0 0 0 0 0 0 0 0 0 0 0 0 0 0 0 0 0 0 0 0 0 0 0 0 0 0 0 0 0 0 0 0 0 0 0 0 0 0 0 0 0 0 0 0 0 0 0 0 0 0 0 0 0 0 0 0 0 0 0 0 0 0 0 0 0 0 0 0 0 0 0 0 0 0 0 0 0 0 0 0 0 0 0 0 0 0 0 0 0 0 0 0 0 </DataArray>
</PointData>
</Piece>
</UnstructuredGrid>
</VTKFile>
