<VTKFile type="UnstructuredGrid" version="0.1" byte_order="LittleEndian">
<UnstructuredGrid>
<Piece NumberOfPoints="125" NumberOfCells="64">
<Points>
<DataArray type="Float32" NumberOfComponents="3" format="ascii">
-0.5 -0.5 -0.5 0.5 -0.5 -0.5 0.5 0.5 -0.5 -0.5 0.5 -0.5 -0.5 -0.5 0.5 0.5 -0.5 0.5 0.5 0.5 0.5 -0.5 0.5 0.5 -0.25 -0.5 -0.5 0 -0.5 -0.5 0.25 -0.5 -0.5 0.5 -0.25 -0.5 0.5 0 -0.5 0.5 0.25 -0.5 0.25 0.5 -0.5 0 0.5 -0.5 -0.25 0.5 -0.5 -0.5 0.25 -0.5 -0.5 0 -0.5 -0.5 -0.25 -0.5 -0.25 -0.5 0.5 0 -0.5 0.5 0.25 -0.5 0.5 0.5 -0.25 0.5 0.5 0 0.5 0.5 0.25 0.5 0.25 0.5 0.5 0 0.5 0.5 -0.25 0.5 0.5 -0.5 0.25 0.5 -0.5 0 0.5 -0.5 -0.25 0.5 -0.5 -0.5 -0.25 -0.5 -0.5 0 -0.5 -0.5 0.25 0.5 -0.5 -0.25 0.5 -0.5 0 0.5 -0.5 0.25 0.5 0.5 -0.25 0.5 0.5 0 0.5 0.5 0.25 -0.5 0.5 -0.25 -0.5 0.5 0 -0.5 0.5 0.25 -0.25 0.25 -0.5 -0.25 0 -0.5 -0.25 -0.25 -0.5 0 0.25 -0.5 0 0 -0.5 0 -0.25 -0.5 0.25 0.25 -0.5 0.25 0 -0.5 0.25 -0.25 -0.5 -0.25 -0.25 0.5 -0.25 0 0.5 -0.25 0.25 0.5 0 -0.25 0.5 0 0 0.5 0 0.25 0.5 0.25 -0.25 0.5 0.25 0 0.5 0.25 0.25 0.5 -0.25 -0.5 -0.25 -0.25 -0.5 0 -0.25 -0.5 0.25 0 -0.5 -0.25 0 -0.5 0 0 -0.5 0.25 0.25 -0.5 -0.25 0.25 -0.5 0 0.25 -0.5 0.25 0.5 -0.25 -0.25 0.5 -0.25 0 0.5 -0.25 0.25 0.5 0 -0.25 0.5 0 0 0.5 0 0.25 0.5 0.25 -0.25 0.5 0.25 0 0.5 0.25 0.25 0.25 0.5 -0.25 0.25 0.5 0 0.25 0.5 0.25 0 0.5 -0.25 0 0.5 0 0 0.5 0.25 -0.25 0.5 -0.25 -0.25 0.5 0 -0.25 0.5 0.25 -0.5 0.25 -0.25 -0.5 0.25 0 -0.5 0.25 0.25 -0.5 0 -0.25 -0.5 0 0 -0.5 0 0.25 -0.5 -0.25 -0.25 -0.5 -0.25 0 -0.5 -0.25 0.25 -0.25 0.25 -0.25 -0.25 0.25 0 -0.25 0.25 0.25 -0.25 0 -0.25 -0.25 0 0 -0.25 0 0.25 -0.25 -0.25 -0.25 -0.25 -0.25 0 -0.25 -0.25 0.25 0 0.25 -0.25 0 0.25 0 0 0.25 0.25 0 0 -0.25 0 0 0 0 0 0.25 0 -0.25 -0.25 0 -0.25 0 0 -0.25 0.25 0.25 0.25 -0.25 0.25 0.25 0 0.25 0.25 0.25 0.25 0 -0.25 0.25 0 0 0.25 0 0.25 0.25 -0.25 -0.25 0.25 -0.25 0 0.25 -0.25 0.25 </DataArray>
</Points>
<Cells>
<DataArray type="Int32" Name="connectivity" format="ascii">
44 16 3 17 98 86 41 89 98 86 41 89 99 87 42 90 99 87 42 90 100 88 43 91 100 88 43 91 55 28 7 29 45 44 17 18 101 98 89 92 101 98 89 92 102 99 90 93 102 99 90 93 103 100 91 94 103 100 91 94 54 55 29 30 46 45 18 19 104 101 92 95 104 101 92 95 105 102 93 96 105 102 93 96 106 103 94 97 106 103 94 97 53 54 30 31 8 46 19 0 62 104 95 32 62 104 95 32 63 105 96 33 63 105 96 33 64 106 97 34 64 106 97 34 20 53 31 4 47 15 16 44 107 83 86 98 107 83 86 98 108 84 87 99 108 84 87 99 109 85 88 100 109 85 88 100 58 27 28 55 48 47 44 45 110 107 98 101 110 107 98 101 111 108 99 102 111 108 99 102 112 109 100 103 112 109 100 103 57 58 55 54 49 48 45 46 113 110 101 104 113 110 101 104 114 111 102 105 114 111 102 105 115 112 103 106 115 112 103 106 56 57 54 53 9 49 46 8 65 113 104 62 65 113 104 62 66 114 105 63 66 114 105 63 67 115 106 64 67 115 106 64 21 56 53 20 50 14 15 47 116 80 83 107 116 80 83 107 117 81 84 108 117 81 84 108 118 82 85 109 118 82 85 109 61 26 27 58 51 50 47 48 119 116 107 110 119 116 107 110 120 117 108 111 120 117 108 111 121 118 109 112 121 118 109 112 60 61 58 57 52 51 48 49 122 119 110 113 122 119 110 113 123 120 111 114 123 120 111 114 124 121 112 115 124 121 112 115 59 60 57 56 10 52 49 9 68 122 113 65 68 122 113 65 69 123 114 66 69 123 114 66 70 124 115 67 70 124 115 67 22 59 56 21 13 2 14 50 77 38 80 116 77 38 80 116 78 39 81 117 78 39 81 117 79 40 82 118 79 40 82 118 25 6 26 61 12 13 50 51 74 77 116 119 74 77 116 119 75 78 117 120 75 78 117 120 76 79 118 121 76 79 118 121 24 25 61 60 11 12 51 52 71 74 119 122 71 74 119 122 72 75 120 123 72 75 120 123 73 76 121 124 73 76 121 124 23 24 60 59 1 11 52 10 35 71 122 68 35 71 122 68 36 72 123 69 36 72 123 69 37 73 124 70 37 73 124 70 5 23 59 22 </DataArray>
<DataArray type="Int32" Name="offsets" format="ascii">
8 16 24 32 40 48 56 64 72 80 88 96 104 112 120 128 136 144 152 160 168 176 184 192 200 208 216 224 232 240 248 256 264 272 280 288 296 304 312 320 328 336 344 352 360 368 376 384 392 400 408 416 424 432 440 448 456 464 472 480 488 496 504 512 </DataArray>
<DataArray type="UInt8" Name="types" format="ascii">
12 12 12 12 12 12 12 12 12 12 12 12 12 12 12 12 12 12 12 12 12 12 12 12 12 12 12 12 12 12 12 12 12 12 12 12 12 12 12 12 12 12 12 12 12 12 12 12 12 12 12 12 12 12 12 12 12 12 12 12 12 12 12 12 </DataArray>
</Cells>
<CellData Scalars="scalars">
<DataArray type="Float32" Name="number_density" format="ascii">
1.024e+13 9.888e+12 9.9008e+12 1.0144e+13 9.9328e+12 1.00864e+13 9.7152e+12 9.6064e+12 1.03488e+13 9.7728e+12 9.824e+12 1.01696e+13 1.0432e+13 9.8624e+12 1.00288e+13 1.04256e+13 9.6512e+12 9.9264e+12 1.01248e+13 1.024e+13 9.9968e+12 9.9136e+12 9.728e+12 9.8432e+12 9.9904e+12 1.02848e+13 9.9648e+12 9.9904e+12 9.9712e+12 1.0304e+13 9.7728e+12 9.6256e+12 9.792e+12 9.9008e+12 1.00544e+13 1.0048e+13 9.9328e+12 9.9968e+12 9.8944e+12 1.008e+13 1.03296e+13 1.0144e+13 9.8432e+12 1.05536e+13 9.8496e+12 1.00544e+13 1.0304e+13 9.8112e+12 9.9584e+12 1.00992e+13 9.9968e+12 1.01376e+13 1.02912e+13 9.3632e+12 9.7408e+12 1.02336e+13 9.952e+12 1.0208e+13 1.01056e+13 1.00608e+13 9.44e+12 9.9904e+12 9.7664e+12 1.03616e+13 </DataArray>
<DataArray type="Float32" Name="potential" format="ascii">
0 0 0 0 0 0 0 0 0 0 0 0 0 0 0 0 0 0 0 0 0 0 0 0 0 0 0 0 0 0 0 0 0 0 0 0 0 0 0 0 0 0 0 0 0 0 0 0 0 0 0 0 0 0 0 0 0 0 0 0 0 0 0 0 </DataArray>
<DataArray type="Float32" Name="temperature" format="ascii">
695.921 709.962 699.487 689.443 697.539 700.072 697.301 684.804 694.806 710.702 675.098 714.84 672.651 680.33 701.17 706.782 678.443 701.405 691.139 691.054 710.427 709.43 679.503 681.337 693.272 682.297 697.647 706.836 731.999 695.988 698.472 693.291 692.809 735.598 698.425 701.59 696.608 694.684 689.518 686.906 703.054 693.249 704.73 701.694 699.641 702.692 701.893 671.411 673.94 683.968 676.407 699.288 699.619 702.275 686.801 718.544 698.522 704.048 716.855 705.247 706.293 711.696 715.342 708.205 </DataArray>
<DataArray type="Float32" Name="velocity" format="ascii">
35.2834 49.3386 47.8035 49.0054 32.1654 52.4673 71.8253 37.1645 47.4528 52.1119 57.981 59.6604 53.1288 40.398 52.8163 55.0158 27.1368 24.9205 57.0287 60.8959 33.0839 31.8631 58.0604 53.729 62.9512 49.5401 51.7186 60.6218 42.8678 42.7216 54.2998 47.1296 27.8487 29.5652 57.6351 43.3169 57.133 28.4904 32.5921 55.3227 44.3802 44.6572 59.6729 35.1666 31.5921 64.5172 49.2288 36.0629 37.7206 31.7565 33.9467 33.2268 39.1342 49.257 42.1182 46.6991 35.4221 28.6026 42.0347 39.1555 30.7418 35.8289 44.1513 42.9424 </DataArray>
<DataArray type="Float32" Name="E_field" format="ascii">
0 0 0 0 0 0 0 0 0 0 0 0 0 0 0 0 0 0 0 0 0 0 0 0 0 0 0 0 0 0 0 0 0 0 0 0 0 0 0 0 0 0 0 0 0 0 0 0 0 0 0 0 0 0 0 0 0 0 0 0 0 0 0 0 </DataArray>
</CellData>
<PointData Scalars="number_density">
<DataArray type="Float32" Name="number_density" format="ascii">
1.0432e+13 9.44e+12 9.9584e+12 1.024e+13 1.04256e+13 1.03616e+13 1.01376e+13 1.0144e+13 1.02016e+13 9.9104e+12 9.6448e+12 9.696e+12 1.01216e+13 1.01248e+13 9.8752e+12 9.7216e+12 9.9456e+12 1.00864e+13 1.01408e+13 1.03904e+13 1.00256e+13 9.7184e+12 1.00864e+13 1.02112e+13 1.01472e+13 1.01856e+13 1.00928e+13 1.0144e+13 1.0192e+13 9.8752e+12 9.888e+12 1.02976e+13 1.01472e+13 9.9456e+12 1.02272e+13 9.7152e+12 9.8784e+12 1.0064e+13 1.00288e+13 1.0048e+13 1.00672e+13 1.0064e+13 9.8944e+12 1.00224e+13 9.9552e+12 1.00672e+13 1.01856e+13 9.8432e+12 1.00624e+13 1.00352e+13 9.9936e+12 1.01264e+13 9.8928e+12 1.00528e+13 9.9024e+12 9.9584e+12 9.9952e+12 1.01168e+13 1.00528e+13 1.01968e+13 1.0232e+13 1.01248e+13 1.01424e+13 9.992e+12 9.9632e+12 1.00448e+13 1.01088e+13 9.8784e+12 9.8336e+12 1.00288e+13 1.00608e+13 9.8976e+12 1.00176e+13 1.00736e+13 9.9536e+12 9.8544e+12 1.00352e+13 9.928e+12 9.8e+12 1.00272e+13 9.9376e+12 1.00128e+13 1.00592e+13 9.8176e+12 1.00016e+13 1.01168e+13 9.9264e+12 9.96e+12 1.01024e+13 1.00368e+13 9.8976e+12 9.8416e+12 1.00352e+13 9.8496e+12 9.8288e+12 1.0104e+13 9.872e+12 1.0112e+13 9.9544e+12 9.9104e+12 9.9128e+12 1.00408e+13 9.9112e+12 9.8552e+12 1.01208e+13 9.9768e+12 9.9752e+12 9.8888e+12 9.9424e+12 1.00016e+13 1.00736e+13 9.9712e+12 9.9872e+12 1.0116e+13 1.0084e+13 9.9832e+12 9.9168e+12 9.8808e+12 1.00232e+13 1.00272e+13 9.912e+12 1.0064e+13 9.996e+12 1.0052e+13 1.01008e+13 </DataArray>
<DataArray type="Float32" Name="potential" format="ascii">
0 0 0 0 0 0 0 0 0 0 0 0 0 0 0 0 0 0 0 0 0 0 0 0 0 0 0 0 0 0 0 0 0 0 0 0 0 0 0 0 0 0 0 0 0 0 0 0 0 0 0 0 0 0 0 0 0 0 0 0 0 0 0 0 0 0 0 0 0 0 0 0 0 0 0 0 0 0 0 0 0 0 0 0 0 0 0 0 0 0 0 0 0 0 0 0 0 0 0 0 0 0 0 0 0 0 0 0 0 0 0 0 0 0 0 0 0 0 0 0 0 0 0 0 0 </DataArray>
<DataArray type="Float32" Name="temperature" format="ascii">
672.651 706.293 673.94 695.921 706.782 708.205 699.288 689.443 702.325 715.82 702.967 702.407 699.07 686.779 683.374 685.626 687.182 696.73 696.173 683.729 700.036 682.351 689.808 706.726 711.895 708.916 700.439 696.322 690.248 687.123 699.822 710.811 676.491 690.75 703.976 708.994 713.519 711.774 678.954 680.187 687.848 702.942 704.725 694.465 695.583 699.011 698.182 694.572 700.84 706.991 690.744 699.451 701.877 705.437 696.954 686.659 693.308 694.193 690.222 696.639 703.098 701.582 695.242 693.99 699.929 707.58 699.762 691.267 705.081 707.906 699.213 705.14 711.985 711.412 701.116 702.495 706.862 689.95 687.363 695.26 696.578 698.599 693.928 702.063 706.642 695.552 696.433 700.498 692.781 700.874 701.706 692.759 700.78 695.793 693.011 689.622 691.825 699.473 700.4 698.537 689.258 699.818 694.006 692.171 695.256 692.713 699.267 702.425 699.963 689.934 697.878 693.882 693.521 700.274 697.121 696.997 697.437 695.959 694.685 699.007 699.02 701.287 702.399 706.313 703.172 </DataArray>
<DataArray type="Float32" Name="velocity" format="ascii">
53.1288 30.7418 37.7206 35.2834 55.0158 42.9424 33.2268 49.0054 45.7466 35.5609 28.6967 30.4381 37.0421 37.2446 32.4708 23.0131 30.8805 31.9295 38.5389 49.6759 46.1625 38.6961 31.3818 35.3101 40.4319 39.3697 36.0357 48.873 54.0725 43.0095 45.0145 56.7569 40.9186 46.2682 47.6307 33.0443 37.9398 41.7229 33.2803 31.0312 31.8175 40.5826 48.4995 46.5902 29.9578 42.261 49.3012 30.261 48.2878 42.8792 32.1689 37.864 30.4734 51.7358 48.139 48.0539 40.4066 45.5966 51.1307 32.7993 39.2467 41.4736 40.6843 44.9539 47.398 42.2574 48.8902 42.6226 37.4006 45.0922 36.9652 30.332 33.3677 35.6833 37.1751 37.7872 34.8875 36.2352 35.6082 36.2644 30.45 35.8071 38.7191 21.3492 36.5253 49.026 31.9027 40.7465 49.0726 35.6886 54.1453 49.146 37.2687 54.5081 50.4625 43.2638 48.4055 50.1904 29.0252 42.3936 49.0377 37.3656 41.3672 46.8452 44.1363 44.638 48.5414 22.6839 24.4263 46.4262 38.1664 12.4026 35.7356 41.808 41.731 41.4273 29.1599 30.8339 38.0158 33.7629 28.5421 33.1011 33.5437 38.9533 35.8377 </DataArray>
<DataArray type="Float32" Name="E_field" format="ascii">
0 0 0 0 0 0 0 0 0 0 0 0 0 0 0 0 0 0 0 0 0 0 0 0 0 0 0 0 0 0 0 0 0 0 0 0 0 0 0 0 0 0 0 0 0 0 0 0 0 0 0 0 0 0 0 0 0 0 0 0 0 0 0 0 0 0 0 0 0 0 0 0 0 0 0 0 0 0 0 0 0 0 0 0 0 0 0 0 0 0 0 0 0 0 0 0 0 0 0 0 0 0 0 0 0 0 0 0 0 0 0 0 0 0 0 0 0 0 0 0 0 0 0 0 0 </DataArray>
</PointData>
</Piece>
</UnstructuredGrid>
</VTKFile>
