<VTKFile type="UnstructuredGrid" version="0.1" byte_order="LittleEndian">
<UnstructuredGrid>
<Piece NumberOfPoints="125" NumberOfCells="64">
<Points>
<DataArray type="Float32" NumberOfComponents="3" format="ascii">
-0.5 -0.5 -0.5 0.5 -0.5 -0.5 0.5 0.5 -0.5 -0.5 0.5 -0.5 -0.5 -0.5 0.5 0.5 -0.5 0.5 0.5 0.5 0.5 -0.5 0.5 0.5 -0.25 -0.5 -0.5 0 -0.5 -0.5 0.25 -0.5 -0.5 0.5 -0.25 -0.5 0.5 0 -0.5 0.5 0.25 -0.5 0.25 0.5 -0.5 0 0.5 -0.5 -0.25 0.5 -0.5 -0.5 0.25 -0.5 -0.5 0 -0.5 -0.5 -0.25 -0.5 -0.25 -0.5 0.5 0 -0.5 0.5 0.25 -0.5 0.5 0.5 -0.25 0.5 0.5 0 0.5 0.5 0.25 0.5 0.25 0.5 0.5 0 0.5 0.5 -0.25 0.5 0.5 -0.5 0.25 0.5 -0.5 0 0.5 -0.5 -0.25 0.5 -0.5 -0.5 -0.25 -0.5 -0.5 0 -0.5 -0.5 0.25 0.5 -0.5 -0.25 0.5 -0.5 0 0.5 -0.5 0.25 0.5 0.5 -0.25 0.5 0.5 0 0.5 0.5 0.25 -0.5 0.5 -0.25 -0.5 0.5 0 -0.5 0.5 0.25 -0.25 0.25 -0.5 -0.25 0 -0.5 -0.25 -0.25 -0.5 0 0.25 -0.5 0 0 -0.5 0 -0.25 -0.5 0.25 0.25 -0.5 0.25 0 -0.5 0.25 -0.25 -0.5 -0.25 -0.25 0.5 -0.25 0 0.5 -0.25 0.25 0.5 0 -0.25 0.5 0 0 0.5 0 0.25 0.5 0.25 -0.25 0.5 0.25 0 0.5 0.25 0.25 0.5 -0.25 -0.5 -0.25 -0.25 -0.5 0 -0.25 -0.5 0.25 0 -0.5 -0.25 0 -0.5 0 0 -0.5 0.25 0.25 -0.5 -0.25 0.25 -0.5 0 0.25 -0.5 0.25 0.5 -0.25 -0.25 0.5 -0.25 0 0.5 -0.25 0.25 0.5 0 -0.25 0.5 0 0 0.5 0 0.25 0.5 0.25 -0.25 0.5 0.25 0 0.5 0.25 0.25 0.25 0.5 -0.25 0.25 0.5 0 0.25 0.5 0.25 0 0.5 -0.25 0 0.5 0 0 0.5 0.25 -0.25 0.5 -0.25 -0.25 0.5 0 -0.25 0.5 0.25 -0.5 0.25 -0.25 -0.5 0.25 0 -0.5 0.25 0.25 -0.5 0 -0.25 -0.5 0 0 -0.5 0 0.25 -0.5 -0.25 -0.25 -0.5 -0.25 0 -0.5 -0.25 0.25 -0.25 0.25 -0.25 -0.25 0.25 0 -0.25 0.25 0.25 -0.25 0 -0.25 -0.25 0 0 -0.25 0 0.25 -0.25 -0.25 -0.25 -0.25 -0.25 0 -0.25 -0.25 0.25 0 0.25 -0.25 0 0.25 0 0 0.25 0.25 0 0 -0.25 0 0 0 0 0 0.25 0 -0.25 -0.25 0 -0.25 0 0 -0.25 0.25 0.25 0.25 -0.25 0.25 0.25 0 0.25 0.25 0.25 0.25 0 -0.25 0.25 0 0 0.25 0 0.25 0.25 -0.25 -0.25 0.25 -0.25 0 0.25 -0.25 0.25 </DataArray>
</Points>
<Cells>
<DataArray type="Int32" Name="connectivity" format="ascii">
44 16 3 17 98 86 41 89 98 86 41 89 99 87 42 90 99 87 42 90 100 88 43 91 100 88 43 91 55 28 7 29 45 44 17 18 101 98 89 92 101 98 89 92 102 99 90 93 102 99 90 93 103 100 91 94 103 100 91 94 54 55 29 30 46 45 18 19 104 101 92 95 104 101 92 95 105 102 93 96 105 102 93 96 106 103 94 97 106 103 94 97 53 54 30 31 8 46 19 0 62 104 95 32 62 104 95 32 63 105 96 33 63 105 96 33 64 106 97 34 64 106 97 34 20 53 31 4 47 15 16 44 107 83 86 98 107 83 86 98 108 84 87 99 108 84 87 99 109 85 88 100 109 85 88 100 58 27 28 55 48 47 44 45 110 107 98 101 110 107 98 101 111 108 99 102 111 108 99 102 112 109 100 103 112 109 100 103 57 58 55 54 49 48 45 46 113 110 101 104 113 110 101 104 114 111 102 105 114 111 102 105 115 112 103 106 115 112 103 106 56 57 54 53 9 49 46 8 65 113 104 62 65 113 104 62 66 114 105 63 66 114 105 63 67 115 106 64 67 115 106 64 21 56 53 20 50 14 15 47 116 80 83 107 116 80 83 107 117 81 84 108 117 81 84 108 118 82 85 109 118 82 85 109 61 26 27 58 51 50 47 48 119 116 107 110 119 116 107 110 120 117 108 111 120 117 108 111 121 118 109 112 121 118 109 112 60 61 58 57 52 51 48 49 122 119 110 113 122 119 110 113 123 120 111 114 123 120 111 114 124 121 112 115 124 121 112 115 59 60 57 56 10 52 49 9 68 122 113 65 68 122 113 65 69 123 114 66 69 123 114 66 70 124 115 67 70 124 115 67 22 59 56 21 13 2 14 50 77 38 80 116 77 38 80 116 78 39 81 117 78 39 81 117 79 40 82 118 79 40 82 118 25 6 26 61 12 13 50 51 74 77 116 119 74 77 116 119 75 78 117 120 75 78 117 120 76 79 118 121 76 79 118 121 24 25 61 60 11 12 51 52 71 74 119 122 71 74 119 122 72 75 120 123 72 75 120 123 73 76 121 124 73 76 121 124 23 24 60 59 1 11 52 10 35 71 122 68 35 71 122 68 36 72 123 69 36 72 123 69 37 73 124 70 37 73 124 70 5 23 59 22 </DataArray>
<DataArray type="Int32" Name="offsets" format="ascii">
8 16 24 32 40 48 56 64 72 80 88 96 104 112 120 128 136 144 152 160 168 176 184 192 200 208 216 224 232 240 248 256 264 272 280 288 296 304 312 320 328 336 344 352 360 368 376 384 392 400 408 416 424 432 440 448 456 464 472 480 488 496 504 512 </DataArray>
<DataArray type="UInt8" Name="types" format="ascii">
12 12 12 12 12 12 12 12 12 12 12 12 12 12 12 12 12 12 12 12 12 12 12 12 12 12 12 12 12 12 12 12 12 12 12 12 12 12 12 12 12 12 12 12 12 12 12 12 12 12 12 12 12 12 12 12 12 12 12 12 12 12 12 12 </DataArray>
</Cells>
<CellData Scalars="scalars">
<DataArray type="Float32" Name="number_density" format="ascii">
8.4096e+12 8.8832e+12 8.256e+12 7.4496e+12 8.864e+12 9.824e+12 8.9792e+12 7.872e+12 8.288e+12 9.4976e+12 9.28e+12 7.8656e+12 7.8464e+12 8.1728e+12 8.4224e+12 7.9616e+12 9.4016e+12 1.11744e+13 1.03168e+13 8.1408e+12 9.9328e+12 1.65568e+13 1.58144e+13 9.5424e+12 9.4848e+12 1.53984e+13 1.5648e+13 9.824e+12 8.3712e+12 9.7536e+12 1.01504e+13 8.6336e+12 9.1264e+12 1.07584e+13 1.02656e+13 8.7232e+12 1.01952e+13 1.6704e+13 1.61536e+13 1.07328e+13 1.0336e+13 1.55072e+13 1.6224e+13 1.09568e+13 8.0768e+12 1.01952e+13 1.05792e+13 8.864e+12 8.128e+12 8.6784e+12 9.0048e+12 8.4224e+12 8.736e+12 9.5168e+12 9.984e+12 8.9536e+12 8.512e+12 1.03424e+13 1.0304e+13 8.9536e+12 7.6928e+12 8.512e+12 8.288e+12 8.5568e+12 </DataArray>
<DataArray type="Float32" Name="potential" format="ascii">
0 0 0 0 0 0 0 0 0 0 0 0 0 0 0 0 0 0 0 0 0 0 0 0 0 0 0 0 0 0 0 0 0 0 0 0 0 0 0 0 0 0 0 0 0 0 0 0 0 0 0 0 0 0 0 0 0 0 0 0 0 0 0 0 </DataArray>
<DataArray type="Float32" Name="temperature" format="ascii">
684.451 713.822 688.29 640.054 751.431 862.397 831.455 708.919 669.462 853.433 830.008 723.684 623.734 708.927 710.464 653.649 743.546 864.691 839.605 675.403 820.956 1172.74 1109.41 814.257 801.832 1070.98 1094.68 861.273 733.773 817.64 886.162 704.378 701.531 857.128 876.701 714.875 843.372 1127.38 1169.24 851.07 802.105 1107.71 1139.88 862.525 698.368 841.007 865.236 720.911 646.827 670.781 669.777 632.374 675.235 826.867 835.842 735.395 713.184 819.563 840.109 710.646 643.876 711.72 713.998 642.197 </DataArray>
<DataArray type="Float32" Name="velocity" format="ascii">
293.044 449.129 559.455 477.452 451.178 613.134 754.515 624.119 547.512 695.58 725.662 590.134 442.176 556.402 547.263 423.069 338.307 412.883 618.647 572.835 531.331 469.706 662.897 721.284 678.706 684.086 668.4 667.311 553.78 653.118 627.906 505.093 398.641 450.919 520.439 477.208 500.622 393.077 418.109 555.28 591.434 553.558 471.567 529.368 488.396 610.059 560.7 434.388 345.2 457.061 443.051 359.668 454.198 571.963 561.14 450.524 466.882 557.352 537.333 427.771 349.953 463.487 437.233 348.411 </DataArray>
<DataArray type="Float32" Name="E_field" format="ascii">
0 0 0 0 0 0 0 0 0 0 0 0 0 0 0 0 0 0 0 0 0 0 0 0 0 0 0 0 0 0 0 0 0 0 0 0 0 0 0 0 0 0 0 0 0 0 0 0 0 0 0 0 0 0 0 0 0 0 0 0 0 0 0 0 </DataArray>
</CellData>
<PointData Scalars="number_density">
<DataArray type="Float32" Name="number_density" format="ascii">
7.8464e+12 7.6928e+12 8.128e+12 8.4096e+12 7.9616e+12 8.5568e+12 8.4224e+12 7.4496e+12 8.1088e+12 8.224e+12 7.8848e+12 8.1024e+12 8.624e+12 8.432e+12 8.6272e+12 9.264e+12 8.9056e+12 8.6368e+12 8.576e+12 8.0672e+12 8.2976e+12 8.7488e+12 8.7104e+12 8.7552e+12 8.9536e+12 8.688e+12 8.5728e+12 8.432e+12 7.7952e+12 7.6608e+12 7.8688e+12 7.9136e+12 8.0096e+12 8.2976e+12 8.192e+12 8.1024e+12 8.4e+12 8.4224e+12 8.4032e+12 8.8416e+12 8.7136e+12 8.6464e+12 8.5696e+12 7.8528e+12 9.152e+12 9.1424e+12 8.4976e+12 9.664e+12 9.9872e+12 9.0672e+12 9.0464e+12 9.4448e+12 8.6544e+12 8.5712e+12 8.776e+12 8.2512e+12 9.5696e+12 1.0264e+13 9.2848e+12 9.3328e+12 9.8992e+12 9.208e+12 8.536e+12 9.1248e+12 8.792e+12 9.0992e+12 1.01696e+13 9.5568e+12 8.6192e+12 9.3936e+12 9.072e+12 8.7648e+12 9.3616e+12 9.0256e+12 9.2768e+12 1.00368e+13 9.5488e+12 8.7648e+12 9.296e+12 9.0912e+12 9.1728e+12 9.6768e+12 9.104e+12 1.01152e+13 1.06288e+13 9.3616e+12 9.4672e+12 9.6576e+12 8.5408e+12 8.9952e+12 8.9856e+12 8.1392e+12 9.1184e+12 9.3952e+12 8.4992e+12 8.4512e+12 8.8432e+12 8.3824e+12 1.03808e+13 1.12256e+13 9.5464e+12 1.09808e+13 1.26248e+13 1.06032e+13 9.6016e+12 1.07904e+13 9.7232e+12 1.17312e+13 1.3468e+13 1.12112e+13 1.30144e+13 1.60008e+13 1.3112e+13 1.08904e+13 1.2932e+13 1.136e+13 1.02304e+13 1.13832e+13 1.028e+13 1.12312e+13 1.3092e+13 1.15328e+13 9.8968e+12 1.1244e+13 1.03408e+13 </DataArray>
<DataArray type="Float32" Name="potential" format="ascii">
0 0 0 0 0 0 0 0 0 0 0 0 0 0 0 0 0 0 0 0 0 0 0 0 0 0 0 0 0 0 0 0 0 0 0 0 0 0 0 0 0 0 0 0 0 0 0 0 0 0 0 0 0 0 0 0 0 0 0 0 0 0 0 0 0 0 0 0 0 0 0 0 0 0 0 0 0 0 0 0 0 0 0 0 0 0 0 0 0 0 0 0 0 0 0 0 0 0 0 0 0 0 0 0 0 0 0 0 0 0 0 0 0 0 0 0 0 0 0 0 0 0 0 0 0 </DataArray>
<DataArray type="Float32" Name="temperature" format="ascii">
623.734 643.876 646.827 684.451 653.649 642.197 632.374 640.054 678.753 716.07 671.122 678.53 694.209 661.031 674.179 722.539 713.999 717.941 710.447 646.598 679.014 712.645 681.554 676.422 723.02 683.884 673.624 695.139 657.729 674.487 716.302 688.667 666.33 709.695 682.056 677.798 712.859 678.098 658.804 670.279 651.075 699.137 701.056 664.172 750.096 760.921 707.2 777.351 817.066 759.02 716.741 758.474 714.383 735.746 777.033 709.658 787.272 847.281 763.901 734.07 789.909 733.428 721.018 780.798 738.663 772.697 852.511 794.172 723.742 782.99 735.586 722.086 771.348 726.738 758.712 830.595 780.498 704.928 750.817 718.347 719.067 768.597 723.432 791.724 859.531 776.646 751.628 776.602 710.838 753.025 773.991 717.18 784.181 844.323 773.517 713.889 775.708 729.451 826.754 885.301 788.424 875.403 978.138 871.712 784.972 871.537 808.038 891.418 1002.11 881.321 968.384 1124 987.793 859.176 977.912 891.881 793.64 879.215 810.66 864.427 983.325 893.089 792.192 879.903 811.938 </DataArray>
<DataArray type="Float32" Name="velocity" format="ascii">
442.176 349.953 345.2 293.044 423.069 348.411 359.668 477.452 495.197 504.707 410.392 401.007 448.22 392.798 366.045 340.891 307.526 363.498 491.808 492.48 460.65 441.561 382.704 381.849 416.04 399.972 405.206 503.917 519.141 547.942 590.598 499.688 490.073 535.755 474.655 403.92 434.704 387.77 398.264 432.477 393.746 361.356 484.643 515.548 384.741 530.579 547.387 391.169 518.69 552.643 405.888 471.847 455.786 530.501 619.667 587.257 481.416 542.496 542.9 410.454 441.811 435.972 537.855 562.645 508.192 547.045 549.047 486.259 460.074 479.006 423.484 444.721 468.586 421.07 482.909 500.396 456.214 442.117 470.278 433.488 398.616 425.138 425.698 336.965 406.823 508.916 347.07 471.539 544.594 426.7 556.707 594.391 545.17 632.149 644.548 545.691 594.815 551.564 399.149 496.713 601.643 531.635 547.984 624.158 577.715 586.084 560.476 327.582 288.867 498.415 427.361 172.889 441.26 551.077 480.51 471.972 413.974 393.434 428.359 450.659 361.645 409.503 476.987 454.33 424.15 </DataArray>
<DataArray type="Float32" Name="E_field" format="ascii">
0 0 0 0 0 0 0 0 0 0 0 0 0 0 0 0 0 0 0 0 0 0 0 0 0 0 0 0 0 0 0 0 0 0 0 0 0 0 0 0 0 0 0 0 0 0 0 0 0 0 0 0 0 0 0 0 0 0 0 0 0 0 0 0 0 0 0 0 0 0 0 0 0 0 0 0 0 0 0 0 0 0 0 0 0 0 0 0 0 0 0 0 0 0 0 0 0 0 0 0 0 0 0 0 0 0 0 0 0 0 0 0 0 0 0 0 0 0 0 0 0 0 0 0 0 </DataArray>
</PointData>
</Piece>
</UnstructuredGrid>
</VTKFile>
