<VTKFile type="UnstructuredGrid" version="0.1" byte_order="LittleEndian">
<UnstructuredGrid>
<Piece NumberOfPoints="125" NumberOfCells="64">
<Points>
<DataArray type="Float32" NumberOfComponents="3" format="ascii">
-0.5 -0.5 -0.5 0.5 -0.5 -0.5 0.5 0.5 -0.5 -0.5 0.5 -0.5 -0.5 -0.5 0.5 0.5 -0.5 0.5 0.5 0.5 0.5 -0.5 0.5 0.5 -0.25 -0.5 -0.5 0 -0.5 -0.5 0.25 -0.5 -0.5 0.5 -0.25 -0.5 0.5 0 -0.5 0.5 0.25 -0.5 0.25 0.5 -0.5 0 0.5 -0.5 -0.25 0.5 -0.5 -0.5 0.25 -0.5 -0.5 0 -0.5 -0.5 -0.25 -0.5 -0.25 -0.5 0.5 0 -0.5 0.5 0.25 -0.5 0.5 0.5 -0.25 0.5 0.5 0 0.5 0.5 0.25 0.5 0.25 0.5 0.5 0 0.5 0.5 -0.25 0.5 0.5 -0.5 0.25 0.5 -0.5 0 0.5 -0.5 -0.25 0.5 -0.5 -0.5 -0.25 -0.5 -0.5 0 -0.5 -0.5 0.25 0.5 -0.5 -0.25 0.5 -0.5 0 0.5 -0.5 0.25 0.5 0.5 -0.25 0.5 0.5 0 0.5 0.5 0.25 -0.5 0.5 -0.25 -0.5 0.5 0 -0.5 0.5 0.25 -0.25 0.25 -0.5 -0.25 0 -0.5 -0.25 -0.25 -0.5 0 0.25 -0.5 0 0 -0.5 0 -0.25 -0.5 0.25 0.25 -0.5 0.25 0 -0.5 0.25 -0.25 -0.5 -0.25 -0.25 0.5 -0.25 0 0.5 -0.25 0.25 0.5 0 -0.25 0.5 0 0 0.5 0 0.25 0.5 0.25 -0.25 0.5 0.25 0 0.5 0.25 0.25 0.5 -0.25 -0.5 -0.25 -0.25 -0.5 0 -0.25 -0.5 0.25 0 -0.5 -0.25 0 -0.5 0 0 -0.5 0.25 0.25 -0.5 -0.25 0.25 -0.5 0 0.25 -0.5 0.25 0.5 -0.25 -0.25 0.5 -0.25 0 0.5 -0.25 0.25 0.5 0 -0.25 0.5 0 0 0.5 0 0.25 0.5 0.25 -0.25 0.5 0.25 0 0.5 0.25 0.25 0.25 0.5 -0.25 0.25 0.5 0 0.25 0.5 0.25 0 0.5 -0.25 0 0.5 0 0 0.5 0.25 -0.25 0.5 -0.25 -0.25 0.5 0 -0.25 0.5 0.25 -0.5 0.25 -0.25 -0.5 0.25 0 -0.5 0.25 0.25 -0.5 0 -0.25 -0.5 0 0 -0.5 0 0.25 -0.5 -0.25 -0.25 -0.5 -0.25 0 -0.5 -0.25 0.25 -0.25 0.25 -0.25 -0.25 0.25 0 -0.25 0.25 0.25 -0.25 0 -0.25 -0.25 0 0 -0.25 0 0.25 -0.25 -0.25 -0.25 -0.25 -0.25 0 -0.25 -0.25 0.25 0 0.25 -0.25 0 0.25 0 0 0.25 0.25 0 0 -0.25 0 0 0 0 0 0.25 0 -0.25 -0.25 0 -0.25 0 0 -0.25 0.25 0.25 0.25 -0.25 0.25 0.25 0 0.25 0.25 0.25 0.25 0 -0.25 0.25 0 0 0.25 0 0.25 0.25 -0.25 -0.25 0.25 -0.25 0 0.25 -0.25 0.25 </DataArray>
</Points>
<Cells>
<DataArray type="Int32" Name="connectivity" format="ascii">
44 16 3 17 98 86 41 89 98 86 41 89 99 87 42 90 99 87 42 90 100 88 43 91 100 88 43 91 55 28 7 29 45 44 17 18 101 98 89 92 101 98 89 92 102 99 90 93 102 99 90 93 103 100 91 94 103 100 91 94 54 55 29 30 46 45 18 19 104 101 92 95 104 101 92 95 105 102 93 96 105 102 93 96 106 103 94 97 106 103 94 97 53 54 30 31 8 46 19 0 62 104 95 32 62 104 95 32 63 105 96 33 63 105 96 33 64 106 97 34 64 106 97 34 20 53 31 4 47 15 16 44 107 83 86 98 107 83 86 98 108 84 87 99 108 84 87 99 109 85 88 100 109 85 88 100 58 27 28 55 48 47 44 45 110 107 98 101 110 107 98 101 111 108 99 102 111 108 99 102 112 109 100 103 112 109 100 103 57 58 55 54 49 48 45 46 113 110 101 104 113 110 101 104 114 111 102 105 114 111 102 105 115 112 103 106 115 112 103 106 56 57 54 53 9 49 46 8 65 113 104 62 65 113 104 62 66 114 105 63 66 114 105 63 67 115 106 64 67 115 106 64 21 56 53 20 50 14 15 47 116 80 83 107 116 80 83 107 117 81 84 108 117 81 84 108 118 82 85 109 118 82 85 109 61 26 27 58 51 50 47 48 119 116 107 110 119 116 107 110 120 117 108 111 120 117 108 111 121 118 109 112 121 118 109 112 60 61 58 57 52 51 48 49 122 119 110 113 122 119 110 113 123 120 111 114 123 120 111 114 124 121 112 115 124 121 112 115 59 60 57 56 10 52 49 9 68 122 113 65 68 122 113 65 69 123 114 66 69 123 114 66 70 124 115 67 70 124 115 67 22 59 56 21 13 2 14 50 77 38 80 116 77 38 80 116 78 39 81 117 78 39 81 117 79 40 82 118 79 40 82 118 25 6 26 61 12 13 50 51 74 77 116 119 74 77 116 119 75 78 117 120 75 78 117 120 76 79 118 121 76 79 118 121 24 25 61 60 11 12 51 52 71 74 119 122 71 74 119 122 72 75 120 123 72 75 120 123 73 76 121 124 73 76 121 124 23 24 60 59 1 11 52 10 35 71 122 68 35 71 122 68 36 72 123 69 36 72 123 69 37 73 124 70 37 73 124 70 5 23 59 22 </DataArray>
<DataArray type="Int32" Name="offsets" format="ascii">
8 16 24 32 40 48 56 64 72 80 88 96 104 112 120 128 136 144 152 160 168 176 184 192 200 208 216 224 232 240 248 256 264 272 280 288 296 304 312 320 328 336 344 352 360 368 376 384 392 400 408 416 424 432 440 448 456 464 472 480 488 496 504 512 </DataArray>
<DataArray type="UInt8" Name="types" format="ascii">
12 12 12 12 12 12 12 12 12 12 12 12 12 12 12 12 12 12 12 12 12 12 12 12 12 12 12 12 12 12 12 12 12 12 12 12 12 12 12 12 12 12 12 12 12 12 12 12 12 12 12 12 12 12 12 12 12 12 12 12 12 12 12 12 </DataArray>
</Cells>
<CellData Scalars="scalars">
<DataArray type="Float32" Name="number_density" format="ascii">
5.9136e+12 6.1952e+12 4.6912e+12 3.5904e+12 5.8112e+12 7.7504e+12 6.3744e+12 4.5056e+12 4.7424e+12 7.232e+12 6.7008e+12 4.4672e+12 4.3072e+12 4.9024e+12 5.1712e+12 4.544e+12 7.936e+12 1.28512e+13 9.1072e+12 4.7808e+12 8.896e+12 3.44704e+13 2.80256e+13 7.1552e+12 7.6928e+12 2.51584e+13 2.79872e+13 8.3584e+12 4.8064e+12 8.1792e+12 9.0752e+12 6.0864e+12 7.2064e+12 1.15648e+13 1.01952e+13 5.952e+12 9.376e+12 3.62432e+13 3.63776e+13 9.9264e+12 8.8896e+12 2.96896e+13 3.38368e+13 1.04448e+13 5.0624e+12 7.968e+12 9.4144e+12 6.2848e+12 4.9984e+12 5.9264e+12 6.3296e+12 5.216e+12 5.9392e+12 8.4736e+12 8.512e+12 6.0288e+12 5.5488e+12 9.1072e+12 9.8112e+12 6.7008e+12 4.6656e+12 5.8688e+12 5.6064e+12 5.3696e+12 </DataArray>
<DataArray type="Float32" Name="potential" format="ascii">
0 0 0 0 0 0 0 0 0 0 0 0 0 0 0 0 0 0 0 0 0 0 0 0 0 0 0 0 0 0 0 0 0 0 0 0 0 0 0 0 0 0 0 0 0 0 0 0 0 0 0 0 0 0 0 0 0 0 0 0 0 0 0 0 </DataArray>
<DataArray type="Float32" Name="temperature" format="ascii">
631.365 793.061 703.926 534.268 741.911 1187.07 1030.9 718.245 660.539 1092.94 1155.29 759.52 557.074 728.751 796.044 579.994 821.887 1242.42 1121.71 730.778 1158.37 2120.42 2051.23 1065.19 991.228 1863.7 1956.32 1207.32 684.975 1025.38 1118.36 758.727 761.58 1189.7 1232.95 790.997 1135.35 2183.66 2204.57 1195.78 1001.86 1957.16 2104.62 1258.09 738.13 1166.18 1226.36 807.893 577.178 713.418 734.259 559.401 728.607 1054.95 1167.94 761.351 760.323 999.508 1167.77 781.772 570.246 733.639 763.181 558.311 </DataArray>
<DataArray type="Float32" Name="velocity" format="ascii">
440.192 633.144 843.483 719.036 672.253 890.31 1140.49 960.569 850.236 1026.21 1080.03 877.261 655.279 847.165 819.871 626.549 537.627 630.156 935.258 845.78 780.666 676.968 944.067 1097.45 1034.64 1032.53 1023.81 988.128 857.935 1022.08 964.121 778.502 592.049 670.525 739.408 711.454 769.824 461.242 531.624 836.217 909.216 804.546 682.716 766.084 741.904 886.189 794.306 661.666 526.735 704.108 684.658 537.687 666.076 842.202 792.821 670.473 701.958 873.539 810.512 663.294 523.592 701.249 647.374 516.666 </DataArray>
<DataArray type="Float32" Name="E_field" format="ascii">
0 0 0 0 0 0 0 0 0 0 0 0 0 0 0 0 0 0 0 0 0 0 0 0 0 0 0 0 0 0 0 0 0 0 0 0 0 0 0 0 0 0 0 0 0 0 0 0 0 0 0 0 0 0 0 0 0 0 0 0 0 0 0 0 </DataArray>
</CellData>
<PointData Scalars="number_density">
<DataArray type="Float32" Name="number_density" format="ascii">
4.3072e+12 4.6656e+12 4.9984e+12 5.9136e+12 4.544e+12 5.3696e+12 5.216e+12 3.5904e+12 4.5568e+12 4.9344e+12 4.864e+12 5.1072e+12 5.744e+12 5.4688e+12 6.1024e+12 7.5712e+12 6.9248e+12 5.8624e+12 5.2768e+12 4.5248e+12 5.3152e+12 6.1856e+12 5.8272e+12 6.0352e+12 6.3648e+12 5.6224e+12 5.584e+12 5.3664e+12 4.1856e+12 4.048e+12 4.4864e+12 4.5056e+12 4.6048e+12 5.0368e+12 4.8576e+12 5.2672e+12 5.7376e+12 5.488e+12 5.4624e+12 6.128e+12 5.7728e+12 6.0544e+12 5.4432e+12 4.1408e+12 7.1392e+12 6.7856e+12 5.3872e+12 8.3536e+12 8.7136e+12 6.6128e+12 6.88e+12 7.4384e+12 6.0416e+12 5.864e+12 6.1216e+12 5.008e+12 7.7936e+12 8.9712e+12 6.9536e+12 7.2e+12 8.2752e+12 6.7808e+12 5.5488e+12 6.832e+12 6.2192e+12 6.504e+12 8.6592e+12 7.7152e+12 5.8912e+12 7.2144e+12 6.6688e+12 6.2976e+12 7.5984e+12 6.872e+12 7.2672e+12 8.976e+12 7.7632e+12 6.3344e+12 7.3104e+12 6.5216e+12 7.424e+12 8.504e+12 6.9232e+12 9.8896e+12 1.09296e+13 7.5088e+12 8.224e+12 8.2112e+12 5.5424e+12 6.4176e+12 6.2528e+12 4.7904e+12 6.384e+12 7.0144e+12 5.512e+12 5.296e+12 6.0016e+12 5.2208e+12 1.1228e+13 1.36832e+13 8.5288e+12 1.27192e+13 1.79624e+13 1.16968e+13 8.3776e+12 1.18008e+13 9.0488e+12 1.6068e+13 2.23544e+13 1.394e+13 2.0052e+13 3.14736e+13 2.0264e+13 1.21808e+13 1.89136e+13 1.3936e+13 1.1216e+13 1.54528e+13 1.10672e+13 1.41584e+13 2.15064e+13 1.52048e+13 9.6e+12 1.39128e+13 1.09336e+13 </DataArray>
<DataArray type="Float32" Name="potential" format="ascii">
0 0 0 0 0 0 0 0 0 0 0 0 0 0 0 0 0 0 0 0 0 0 0 0 0 0 0 0 0 0 0 0 0 0 0 0 0 0 0 0 0 0 0 0 0 0 0 0 0 0 0 0 0 0 0 0 0 0 0 0 0 0 0 0 0 0 0 0 0 0 0 0 0 0 0 0 0 0 0 0 0 0 0 0 0 0 0 0 0 0 0 0 0 0 0 0 0 0 0 0 0 0 0 0 0 0 0 0 0 0 0 0 0 0 0 0 0 0 0 0 0 0 0 0 0 </DataArray>
<DataArray type="Float32" Name="temperature" format="ascii">
557.074 570.246 577.178 631.365 579.994 558.311 559.401 534.268 621.024 711.552 654.188 665.285 744.465 652.893 669.379 791.733 726.626 686.638 701.225 608.807 669.361 783.31 683.102 670.041 771.561 660.376 675.199 760.888 632.523 626.257 738.882 669.757 642.913 762.398 688.019 651.942 748.41 660.746 645.298 723.839 646.83 712.213 748.493 619.097 838.383 888.012 723.454 969.295 1071.7 854.049 800.678 906.535 767.641 826.389 937.568 762.121 1008.01 1181.59 945.687 851.517 999.248 826.882 749.044 917.134 813.282 903.667 1134.07 977.837 802.05 972.342 838.937 765.929 916.024 817.758 885.847 1097.54 969.707 768.538 917.642 805.738 810.47 967.583 829.402 1003.9 1196.7 969.109 872.183 965.278 772.67 838.351 928.738 746.834 920.614 1116.55 915.988 759.826 943.255 822.711 1087.06 1281.34 994.531 1227.02 1557.23 1243 950.573 1217.1 1041.45 1326.67 1668.33 1299.15 1551.47 2055.21 1630.39 1178.58 1552.26 1304.71 1043.06 1310.18 1080.91 1227.68 1605.02 1330.24 990.882 1264.8 1083.5 </DataArray>
<DataArray type="Float32" Name="velocity" format="ascii">
655.279 523.592 526.735 440.192 626.549 516.666 537.687 719.036 754.657 759.951 622.24 609.889 653.222 587.746 553.267 500.574 483.541 545.634 740.292 751.185 700.758 662.73 575.025 582.966 623.408 598.117 614.887 721.721 777.138 837.421 880.507 742.022 745.597 784.53 716.241 609.148 637.193 577.057 612.915 650.961 603.641 524.453 695.364 779 586.889 800.588 843.743 565.085 751.745 833.841 616.758 710.434 704.798 802.199 923.881 896.257 713.752 757.344 789.78 621.577 652.575 668.017 835.167 852.095 783.656 818.537 778.783 721.909 693.393 683.197 630.219 690.664 704.505 642.54 717.535 695.665 662.355 669.245 685.424 650.664 610.562 626.757 647.493 505.687 547.124 722.583 535.193 693.852 826.181 631.204 802.883 908.869 809.749 884.217 957.442 833.66 867.141 831.939 609.963 731.594 918.816 802.075 792.365 935.296 896.579 885.025 864.732 477.228 387.303 714.266 623.192 306.937 634.538 831.281 707.602 716.709 619.68 555.557 647.189 667.455 484.25 591.431 737.737 669.155 643.769 </DataArray>
<DataArray type="Float32" Name="E_field" format="ascii">
0 0 0 0 0 0 0 0 0 0 0 0 0 0 0 0 0 0 0 0 0 0 0 0 0 0 0 0 0 0 0 0 0 0 0 0 0 0 0 0 0 0 0 0 0 0 0 0 0 0 0 0 0 0 0 0 0 0 0 0 0 0 0 0 0 0 0 0 0 0 0 0 0 0 0 0 0 0 0 0 0 0 0 0 0 0 0 0 0 0 0 0 0 0 0 0 0 0 0 0 0 0 0 0 0 0 0 0 0 0 0 0 0 0 0 0 0 0 0 0 0 0 0 0 0 </DataArray>
</PointData>
</Piece>
</UnstructuredGrid>
</VTKFile>
