<VTKFile type="UnstructuredGrid" version="0.1" byte_order="LittleEndian">
<UnstructuredGrid>
<Piece NumberOfPoints="125" NumberOfCells="64">
<Points>
<DataArray type="Float32" NumberOfComponents="3" format="ascii">
-0.5 -0.5 -0.5 0.5 -0.5 -0.5 0.5 0.5 -0.5 -0.5 0.5 -0.5 -0.5 -0.5 0.5 0.5 -0.5 0.5 0.5 0.5 0.5 -0.5 0.5 0.5 -0.25 -0.5 -0.5 0 -0.5 -0.5 0.25 -0.5 -0.5 0.5 -0.25 -0.5 0.5 0 -0.5 0.5 0.25 -0.5 0.25 0.5 -0.5 0 0.5 -0.5 -0.25 0.5 -0.5 -0.5 0.25 -0.5 -0.5 0 -0.5 -0.5 -0.25 -0.5 -0.25 -0.5 0.5 0 -0.5 0.5 0.25 -0.5 0.5 0.5 -0.25 0.5 0.5 0 0.5 0.5 0.25 0.5 0.25 0.5 0.5 0 0.5 0.5 -0.25 0.5 0.5 -0.5 0.25 0.5 -0.5 0 0.5 -0.5 -0.25 0.5 -0.5 -0.5 -0.25 -0.5 -0.5 0 -0.5 -0.5 0.25 0.5 -0.5 -0.25 0.5 -0.5 0 0.5 -0.5 0.25 0.5 0.5 -0.25 0.5 0.5 0 0.5 0.5 0.25 -0.5 0.5 -0.25 -0.5 0.5 0 -0.5 0.5 0.25 -0.25 0.25 -0.5 -0.25 0 -0.5 -0.25 -0.25 -0.5 0 0.25 -0.5 0 0 -0.5 0 -0.25 -0.5 0.25 0.25 -0.5 0.25 0 -0.5 0.25 -0.25 -0.5 -0.25 -0.25 0.5 -0.25 0 0.5 -0.25 0.25 0.5 0 -0.25 0.5 0 0 0.5 0 0.25 0.5 0.25 -0.25 0.5 0.25 0 0.5 0.25 0.25 0.5 -0.25 -0.5 -0.25 -0.25 -0.5 0 -0.25 -0.5 0.25 0 -0.5 -0.25 0 -0.5 0 0 -0.5 0.25 0.25 -0.5 -0.25 0.25 -0.5 0 0.25 -0.5 0.25 0.5 -0.25 -0.25 0.5 -0.25 0 0.5 -0.25 0.25 0.5 0 -0.25 0.5 0 0 0.5 0 0.25 0.5 0.25 -0.25 0.5 0.25 0 0.5 0.25 0.25 0.25 0.5 -0.25 0.25 0.5 0 0.25 0.5 0.25 0 0.5 -0.25 0 0.5 0 0 0.5 0.25 -0.25 0.5 -0.25 -0.25 0.5 0 -0.25 0.5 0.25 -0.5 0.25 -0.25 -0.5 0.25 0 -0.5 0.25 0.25 -0.5 0 -0.25 -0.5 0 0 -0.5 0 0.25 -0.5 -0.25 -0.25 -0.5 -0.25 0 -0.5 -0.25 0.25 -0.25 0.25 -0.25 -0.25 0.25 0 -0.25 0.25 0.25 -0.25 0 -0.25 -0.25 0 0 -0.25 0 0.25 -0.25 -0.25 -0.25 -0.25 -0.25 0 -0.25 -0.25 0.25 0 0.25 -0.25 0 0.25 0 0 0.25 0.25 0 0 -0.25 0 0 0 0 0 0.25 0 -0.25 -0.25 0 -0.25 0 0 -0.25 0.25 0.25 0.25 -0.25 0.25 0.25 0 0.25 0.25 0.25 0.25 0 -0.25 0.25 0 0 0.25 0 0.25 0.25 -0.25 -0.25 0.25 -0.25 0 0.25 -0.25 0.25 </DataArray>
</Points>
<Cells>
<DataArray type="Int32" Name="connectivity" format="ascii">
44 16 3 17 98 86 41 89 98 86 41 89 99 87 42 90 99 87 42 90 100 88 43 91 100 88 43 91 55 28 7 29 45 44 17 18 101 98 89 92 101 98 89 92 102 99 90 93 102 99 90 93 103 100 91 94 103 100 91 94 54 55 29 30 46 45 18 19 104 101 92 95 104 101 92 95 105 102 93 96 105 102 93 96 106 103 94 97 106 103 94 97 53 54 30 31 8 46 19 0 62 104 95 32 62 104 95 32 63 105 96 33 63 105 96 33 64 106 97 34 64 106 97 34 20 53 31 4 47 15 16 44 107 83 86 98 107 83 86 98 108 84 87 99 108 84 87 99 109 85 88 100 109 85 88 100 58 27 28 55 48 47 44 45 110 107 98 101 110 107 98 101 111 108 99 102 111 108 99 102 112 109 100 103 112 109 100 103 57 58 55 54 49 48 45 46 113 110 101 104 113 110 101 104 114 111 102 105 114 111 102 105 115 112 103 106 115 112 103 106 56 57 54 53 9 49 46 8 65 113 104 62 65 113 104 62 66 114 105 63 66 114 105 63 67 115 106 64 67 115 106 64 21 56 53 20 50 14 15 47 116 80 83 107 116 80 83 107 117 81 84 108 117 81 84 108 118 82 85 109 118 82 85 109 61 26 27 58 51 50 47 48 119 116 107 110 119 116 107 110 120 117 108 111 120 117 108 111 121 118 109 112 121 118 109 112 60 61 58 57 52 51 48 49 122 119 110 113 122 119 110 113 123 120 111 114 123 120 111 114 124 121 112 115 124 121 112 115 59 60 57 56 10 52 49 9 68 122 113 65 68 122 113 65 69 123 114 66 69 123 114 66 70 124 115 67 70 124 115 67 22 59 56 21 13 2 14 50 77 38 80 116 77 38 80 116 78 39 81 117 78 39 81 117 79 40 82 118 79 40 82 118 25 6 26 61 12 13 50 51 74 77 116 119 74 77 116 119 75 78 117 120 75 78 117 120 76 79 118 121 76 79 118 121 24 25 61 60 11 12 51 52 71 74 119 122 71 74 119 122 72 75 120 123 72 75 120 123 73 76 121 124 73 76 121 124 23 24 60 59 1 11 52 10 35 71 122 68 35 71 122 68 36 72 123 69 36 72 123 69 37 73 124 70 37 73 124 70 5 23 59 22 </DataArray>
<DataArray type="Int32" Name="offsets" format="ascii">
8 16 24 32 40 48 56 64 72 80 88 96 104 112 120 128 136 144 152 160 168 176 184 192 200 208 216 224 232 240 248 256 264 272 280 288 296 304 312 320 328 336 344 352 360 368 376 384 392 400 408 416 424 432 440 448 456 464 472 480 488 496 504 512 </DataArray>
<DataArray type="UInt8" Name="types" format="ascii">
12 12 12 12 12 12 12 12 12 12 12 12 12 12 12 12 12 12 12 12 12 12 12 12 12 12 12 12 12 12 12 12 12 12 12 12 12 12 12 12 12 12 12 12 12 12 12 12 12 12 12 12 12 12 12 12 12 12 12 12 12 12 12 12 </DataArray>
</Cells>
<CellData Scalars="scalars">
<DataArray type="Float32" Name="number_density" format="ascii">
8.8896e+12 9.1456e+12 8.5312e+12 8.1728e+12 9.1392e+12 1.00736e+13 9.1264e+12 8.0768e+12 8.8192e+12 9.6512e+12 9.6064e+12 8.4416e+12 8.2304e+12 8.7552e+12 8.8448e+12 8.4736e+12 9.44e+12 1.09568e+13 1.02976e+13 8.6528e+12 9.8176e+12 1.48992e+13 1.4176e+13 9.824e+12 9.6576e+12 1.40608e+13 1.41184e+13 9.8624e+12 8.8256e+12 9.8432e+12 9.984e+12 8.96e+12 9.2864e+12 1.06176e+13 1.0336e+13 8.9856e+12 1.01696e+13 1.49056e+13 1.45216e+13 1.06368e+13 1.01696e+13 1.41568e+13 1.45856e+13 1.0976e+13 8.6336e+12 1.00672e+13 1.056e+13 9.0176e+12 8.6016e+12 8.9472e+12 9.1648e+12 8.8128e+12 9.2032e+12 9.5616e+12 1.01632e+13 9.1904e+12 8.864e+12 1.02016e+13 1.04768e+13 9.2096e+12 8.0768e+12 8.9088e+12 8.6848e+12 8.9536e+12 </DataArray>
<DataArray type="Float32" Name="potential" format="ascii">
0 0 0 0 0 0 0 0 0 0 0 0 0 0 0 0 0 0 0 0 0 0 0 0 0 0 0 0 0 0 0 0 0 0 0 0 0 0 0 0 0 0 0 0 0 0 0 0 0 0 0 0 0 0 0 0 0 0 0 0 0 0 0 0 </DataArray>
<DataArray type="Float32" Name="temperature" format="ascii">
673.817 713.667 687.372 652.328 746.808 820.648 797.596 690.708 678.246 818.406 796.94 716.26 632.997 704.314 690.204 667.812 739.207 823.773 801.027 672.936 791.492 1062.74 1009.46 787.839 777.992 991.432 992.313 814.007 727.038 785.288 838.368 704.908 690.23 834.594 849.594 714.72 802.322 1019.1 1049.84 808.322 764.56 1004.23 1038.81 815.106 697.164 811.971 823.64 710.906 644.214 671.271 668.644 642.38 684.429 787.18 808.596 732.873 712.05 783.55 811.123 716.395 655.605 711.544 714.558 652.31 </DataArray>
<DataArray type="Float32" Name="velocity" format="ascii">
272.674 409.385 495.607 435.358 396.112 552.274 671.127 549.723 489.528 618.347 648.137 528.636 389.071 499.515 498.496 381.717 302.346 366.489 548.255 512.913 470.468 416.131 587.805 647.227 602.767 603.501 589.859 596.49 494.129 581.623 557.071 443.307 351.313 404.114 463.603 423.952 448.124 356.652 376.528 495.428 525.776 491.274 420.167 475.005 439.153 546.081 505.254 384.254 310.388 408.59 385.755 320.697 411.152 508.557 499.759 401.243 412.329 496.024 480.078 381.017 312.293 419.55 391.731 315.187 </DataArray>
<DataArray type="Float32" Name="E_field" format="ascii">
0 0 0 0 0 0 0 0 0 0 0 0 0 0 0 0 0 0 0 0 0 0 0 0 0 0 0 0 0 0 0 0 0 0 0 0 0 0 0 0 0 0 0 0 0 0 0 0 0 0 0 0 0 0 0 0 0 0 0 0 0 0 0 0 </DataArray>
</CellData>
<PointData Scalars="number_density">
<DataArray type="Float32" Name="number_density" format="ascii">
8.2304e+12 8.0768e+12 8.6016e+12 8.8896e+12 8.4736e+12 8.9536e+12 8.8128e+12 8.1728e+12 8.528e+12 8.7296e+12 8.3552e+12 8.4704e+12 9.0336e+12 8.9024e+12 8.944e+12 9.3632e+12 9.1648e+12 9.0144e+12 8.9792e+12 8.5248e+12 8.7168e+12 8.9888e+12 8.9856e+12 9.0816e+12 9.2e+12 9.0016e+12 8.8992e+12 8.8192e+12 8.4128e+12 8.1248e+12 8.2592e+12 8.4576e+12 8.4928e+12 8.8e+12 8.6592e+12 8.4928e+12 8.7968e+12 8.8192e+12 8.7744e+12 9.056e+12 8.9888e+12 9.0176e+12 8.8384e+12 8.352e+12 9.3216e+12 9.3584e+12 8.8832e+12 9.6784e+12 9.9536e+12 9.3216e+12 9.3152e+12 9.6016e+12 8.936e+12 8.9344e+12 9.0512e+12 8.6816e+12 9.704e+12 1.03248e+13 9.5248e+12 9.5392e+12 1.00032e+13 9.4064e+12 8.9136e+12 9.3568e+12 9.0656e+12 9.3424e+12 1.01136e+13 9.6304e+12 8.9216e+12 9.5552e+12 9.304e+12 9.0128e+12 9.568e+12 9.3312e+12 9.4576e+12 1.01008e+13 9.76e+12 9.0784e+12 9.4592e+12 9.3328e+12 9.3632e+12 9.7664e+12 9.3248e+12 1.00752e+13 1.0552e+13 9.568e+12 9.608e+12 9.7328e+12 8.9136e+12 9.312e+12 9.2192e+12 8.4768e+12 9.4208e+12 9.6144e+12 8.8128e+12 8.864e+12 9.2144e+12 8.8416e+12 1.02952e+13 1.09008e+13 9.6072e+12 1.07648e+13 1.1964e+13 1.0404e+13 9.7304e+12 1.0608e+13 9.7864e+12 1.12616e+13 1.25888e+13 1.09288e+13 1.22296e+13 1.4428e+13 1.23376e+13 1.06768e+13 1.2172e+13 1.1008e+13 1.01616e+13 1.10272e+13 1.02264e+13 1.0904e+13 1.23216e+13 1.122e+13 9.8848e+12 1.09552e+13 1.0308e+13 </DataArray>
<DataArray type="Float32" Name="potential" format="ascii">
0 0 0 0 0 0 0 0 0 0 0 0 0 0 0 0 0 0 0 0 0 0 0 0 0 0 0 0 0 0 0 0 0 0 0 0 0 0 0 0 0 0 0 0 0 0 0 0 0 0 0 0 0 0 0 0 0 0 0 0 0 0 0 0 0 0 0 0 0 0 0 0 0 0 0 0 0 0 0 0 0 0 0 0 0 0 0 0 0 0 0 0 0 0 0 0 0 0 0 0 0 0 0 0 0 0 0 0 0 0 0 0 0 0 0 0 0 0 0 0 0 0 0 0 0 </DataArray>
<DataArray type="Float32" Name="temperature" format="ascii">
632.997 655.605 644.214 673.817 667.812 652.31 642.38 652.328 680.017 712.101 676.384 683.827 698.239 664.322 667.222 714.719 706.512 710.313 712.527 655.622 686.36 707.907 681.608 684.353 724.634 687.626 678.55 693.828 662.632 671.518 703.484 692.036 668.655 697.259 679.008 683.574 713.051 683.434 657.743 669.958 655.512 693.742 700.519 669.85 737.831 748.635 704.068 755.813 784.092 741.689 705.299 740.84 707.345 725.747 752.204 700.953 761.232 806.319 745.954 723.679 768.174 724.574 712.409 754.543 725.323 755.365 814.817 769.456 719.071 765.428 725.354 715.687 755.194 723.597 741.802 797.612 767.247 696.774 733.923 713.123 710.077 756.026 718.835 771.951 827.247 759.57 737.616 756.46 703.416 738.735 754.821 707.001 766.027 808.398 750.376 708.491 752.466 717.804 796.519 839.535 762.408 835.971 911.192 825.64 764.464 827.158 777.602 845.433 931.266 836.717 901.734 1020.99 914.461 819.959 910.756 842.257 766.668 836.103 784.371 819.678 912.804 847.633 767.584 837.428 785.356 </DataArray>
<DataArray type="Float32" Name="velocity" format="ascii">
389.071 312.293 310.388 272.674 381.717 315.187 320.697 435.358 439.247 452.864 366.896 355.13 402.675 352.869 325.947 302.34 280.932 325.976 436.216 437.034 408.568 392.08 340.695 342.22 371.765 356.384 358.584 452.2 467.45 490.108 525.646 448.576 436.099 484.562 430.234 363.155 393.069 348.723 356.321 383.156 346.414 331.101 436.181 462.984 342.676 469.853 486.4 350.256 465.418 492.882 361.624 422.41 404.304 471.63 553.028 525.612 431.006 488.737 488.155 365.717 393.827 386.504 478.861 503.914 453.312 489.288 492.899 433.947 412.71 432.389 377.815 395.748 419.223 376.273 432.326 448.119 407.309 394.913 418.941 383.759 354.728 379.023 375.97 299.684 367.485 454.355 312.748 421.873 485.423 384.385 498.641 528.522 487.535 567.473 573.562 485.754 533.663 495.169 354.946 441.485 534.445 471.877 486.999 554.218 513.106 521.44 497.902 292.713 259.477 445.649 382.723 151.019 395.356 490.868 429.454 420.957 368.352 351.486 379.279 402.166 323.199 365.006 423.83 405.879 377.102 </DataArray>
<DataArray type="Float32" Name="E_field" format="ascii">
0 0 0 0 0 0 0 0 0 0 0 0 0 0 0 0 0 0 0 0 0 0 0 0 0 0 0 0 0 0 0 0 0 0 0 0 0 0 0 0 0 0 0 0 0 0 0 0 0 0 0 0 0 0 0 0 0 0 0 0 0 0 0 0 0 0 0 0 0 0 0 0 0 0 0 0 0 0 0 0 0 0 0 0 0 0 0 0 0 0 0 0 0 0 0 0 0 0 0 0 0 0 0 0 0 0 0 0 0 0 0 0 0 0 0 0 0 0 0 0 0 0 0 0 0 </DataArray>
</PointData>
</Piece>
</UnstructuredGrid>
</VTKFile>
