<VTKFile type="UnstructuredGrid" version="0.1" byte_order="LittleEndian">
<UnstructuredGrid>
<Piece NumberOfPoints="125" NumberOfCells="64">
<Points>
<DataArray type="Float32" NumberOfComponents="3" format="ascii">
-0.5 -0.5 -0.5 0.5 -0.5 -0.5 0.5 0.5 -0.5 -0.5 0.5 -0.5 -0.5 -0.5 0.5 0.5 -0.5 0.5 0.5 0.5 0.5 -0.5 0.5 0.5 -0.25 -0.5 -0.5 0 -0.5 -0.5 0.25 -0.5 -0.5 0.5 -0.25 -0.5 0.5 0 -0.5 0.5 0.25 -0.5 0.25 0.5 -0.5 0 0.5 -0.5 -0.25 0.5 -0.5 -0.5 0.25 -0.5 -0.5 0 -0.5 -0.5 -0.25 -0.5 -0.25 -0.5 0.5 0 -0.5 0.5 0.25 -0.5 0.5 0.5 -0.25 0.5 0.5 0 0.5 0.5 0.25 0.5 0.25 0.5 0.5 0 0.5 0.5 -0.25 0.5 0.5 -0.5 0.25 0.5 -0.5 0 0.5 -0.5 -0.25 0.5 -0.5 -0.5 -0.25 -0.5 -0.5 0 -0.5 -0.5 0.25 0.5 -0.5 -0.25 0.5 -0.5 0 0.5 -0.5 0.25 0.5 0.5 -0.25 0.5 0.5 0 0.5 0.5 0.25 -0.5 0.5 -0.25 -0.5 0.5 0 -0.5 0.5 0.25 -0.25 0.25 -0.5 -0.25 0 -0.5 -0.25 -0.25 -0.5 0 0.25 -0.5 0 0 -0.5 0 -0.25 -0.5 0.25 0.25 -0.5 0.25 0 -0.5 0.25 -0.25 -0.5 -0.25 -0.25 0.5 -0.25 0 0.5 -0.25 0.25 0.5 0 -0.25 0.5 0 0 0.5 0 0.25 0.5 0.25 -0.25 0.5 0.25 0 0.5 0.25 0.25 0.5 -0.25 -0.5 -0.25 -0.25 -0.5 0 -0.25 -0.5 0.25 0 -0.5 -0.25 0 -0.5 0 0 -0.5 0.25 0.25 -0.5 -0.25 0.25 -0.5 0 0.25 -0.5 0.25 0.5 -0.25 -0.25 0.5 -0.25 0 0.5 -0.25 0.25 0.5 0 -0.25 0.5 0 0 0.5 0 0.25 0.5 0.25 -0.25 0.5 0.25 0 0.5 0.25 0.25 0.25 0.5 -0.25 0.25 0.5 0 0.25 0.5 0.25 0 0.5 -0.25 0 0.5 0 0 0.5 0.25 -0.25 0.5 -0.25 -0.25 0.5 0 -0.25 0.5 0.25 -0.5 0.25 -0.25 -0.5 0.25 0 -0.5 0.25 0.25 -0.5 0 -0.25 -0.5 0 0 -0.5 0 0.25 -0.5 -0.25 -0.25 -0.5 -0.25 0 -0.5 -0.25 0.25 -0.25 0.25 -0.25 -0.25 0.25 0 -0.25 0.25 0.25 -0.25 0 -0.25 -0.25 0 0 -0.25 0 0.25 -0.25 -0.25 -0.25 -0.25 -0.25 0 -0.25 -0.25 0.25 0 0.25 -0.25 0 0.25 0 0 0.25 0.25 0 0 -0.25 0 0 0 0 0 0.25 0 -0.25 -0.25 0 -0.25 0 0 -0.25 0.25 0.25 0.25 -0.25 0.25 0.25 0 0.25 0.25 0.25 0.25 0 -0.25 0.25 0 0 0.25 0 0.25 0.25 -0.25 -0.25 0.25 -0.25 0 0.25 -0.25 0.25 </DataArray>
</Points>
<Cells>
<DataArray type="Int32" Name="connectivity" format="ascii">
44 16 3 17 98 86 41 89 98 86 41 89 99 87 42 90 99 87 42 90 100 88 43 91 100 88 43 91 55 28 7 29 45 44 17 18 101 98 89 92 101 98 89 92 102 99 90 93 102 99 90 93 103 100 91 94 103 100 91 94 54 55 29 30 46 45 18 19 104 101 92 95 104 101 92 95 105 102 93 96 105 102 93 96 106 103 94 97 106 103 94 97 53 54 30 31 8 46 19 0 62 104 95 32 62 104 95 32 63 105 96 33 63 105 96 33 64 106 97 34 64 106 97 34 20 53 31 4 47 15 16 44 107 83 86 98 107 83 86 98 108 84 87 99 108 84 87 99 109 85 88 100 109 85 88 100 58 27 28 55 48 47 44 45 110 107 98 101 110 107 98 101 111 108 99 102 111 108 99 102 112 109 100 103 112 109 100 103 57 58 55 54 49 48 45 46 113 110 101 104 113 110 101 104 114 111 102 105 114 111 102 105 115 112 103 106 115 112 103 106 56 57 54 53 9 49 46 8 65 113 104 62 65 113 104 62 66 114 105 63 66 114 105 63 67 115 106 64 67 115 106 64 21 56 53 20 50 14 15 47 116 80 83 107 116 80 83 107 117 81 84 108 117 81 84 108 118 82 85 109 118 82 85 109 61 26 27 58 51 50 47 48 119 116 107 110 119 116 107 110 120 117 108 111 120 117 108 111 121 118 109 112 121 118 109 112 60 61 58 57 52 51 48 49 122 119 110 113 122 119 110 113 123 120 111 114 123 120 111 114 124 121 112 115 124 121 112 115 59 60 57 56 10 52 49 9 68 122 113 65 68 122 113 65 69 123 114 66 69 123 114 66 70 124 115 67 70 124 115 67 22 59 56 21 13 2 14 50 77 38 80 116 77 38 80 116 78 39 81 117 78 39 81 117 79 40 82 118 79 40 82 118 25 6 26 61 12 13 50 51 74 77 116 119 74 77 116 119 75 78 117 120 75 78 117 120 76 79 118 121 76 79 118 121 24 25 61 60 11 12 51 52 71 74 119 122 71 74 119 122 72 75 120 123 72 75 120 123 73 76 121 124 73 76 121 124 23 24 60 59 1 11 52 10 35 71 122 68 35 71 122 68 36 72 123 69 36 72 123 69 37 73 124 70 37 73 124 70 5 23 59 22 </DataArray>
<DataArray type="Int32" Name="offsets" format="ascii">
8 16 24 32 40 48 56 64 72 80 88 96 104 112 120 128 136 144 152 160 168 176 184 192 200 208 216 224 232 240 248 256 264 272 280 288 296 304 312 320 328 336 344 352 360 368 376 384 392 400 408 416 424 432 440 448 456 464 472 480 488 496 504 512 </DataArray>
<DataArray type="UInt8" Name="types" format="ascii">
12 12 12 12 12 12 12 12 12 12 12 12 12 12 12 12 12 12 12 12 12 12 12 12 12 12 12 12 12 12 12 12 12 12 12 12 12 12 12 12 12 12 12 12 12 12 12 12 12 12 12 12 12 12 12 12 12 12 12 12 12 12 12 12 </DataArray>
</Cells>
<CellData Scalars="scalars">
<DataArray type="Float32" Name="number_density" format="ascii">
7.1168e+12 7.5008e+12 6.368e+12 5.2544e+12 7.2256e+12 8.8896e+12 7.6672e+12 5.8944e+12 6.208e+12 8.6272e+12 8.3136e+12 5.8944e+12 5.8176e+12 6.2784e+12 6.6496e+12 6.0864e+12 8.6016e+12 1.19616e+13 9.7472e+12 6.2656e+12 9.7472e+12 2.57408e+13 2.32128e+13 8.4544e+12 8.5248e+12 2.09856e+13 2.23488e+13 9.1712e+12 6.3744e+12 9.1776e+12 9.6064e+12 7.2704e+12 8.2304e+12 1.14752e+13 1.0432e+13 7.3152e+12 9.7536e+12 2.56256e+13 2.55936e+13 1.04384e+13 9.7728e+12 2.2688e+13 2.47232e+13 1.11936e+13 6.4384e+12 9.216e+12 9.984e+12 7.5584e+12 6.3168e+12 7.2896e+12 7.7312e+12 6.5536e+12 7.3344e+12 9.2096e+12 9.3312e+12 7.36e+12 6.8032e+12 1.00288e+13 1.0272e+13 7.6928e+12 5.9584e+12 7.0144e+12 7.0272e+12 6.656e+12 </DataArray>
<DataArray type="Float32" Name="potential" format="ascii">
0 0 0 0 0 0 0 0 0 0 0 0 0 0 0 0 0 0 0 0 0 0 0 0 0 0 0 0 0 0 0 0 0 0 0 0 0 0 0 0 0 0 0 0 0 0 0 0 0 0 0 0 0 0 0 0 0 0 0 0 0 0 0 0 </DataArray>
<DataArray type="Float32" Name="temperature" format="ascii">
668.11 762.546 681.037 601.953 734.95 1009.62 974.581 720.36 673.148 982.061 1018.88 737.829 598.339 710.822 746.615 608.312 785.294 1055.15 991.492 690.887 995.679 1662.81 1560.39 933.134 914.564 1474.59 1564.79 1027.5 684.546 935.499 1005.53 743.615 743.995 1024.72 1053.45 773.708 982.317 1667.47 1693.66 1052.5 900.902 1523.1 1645.2 1076.68 723.484 1008.85 1050.01 751.179 596.549 703.763 704.148 586.828 711.994 929.418 990.495 768.024 745.831 929.426 985.322 751.02 596.199 720.484 743.853 595.669 </DataArray>
<DataArray type="Float32" Name="velocity" format="ascii">
387.947 581.41 743.728 627.52 584.438 802.535 997.848 839.253 730.783 904.497 966.299 768.321 574.925 746.889 730.771 552.709 460.388 545.292 816.588 758.143 705.98 621.289 883.83 962.161 908.663 927.011 905.965 878.366 736.123 888.98 844.367 684.097 515.854 606.233 669.1 623.989 674.516 480.5 523.098 732.064 786.734 736.062 624.342 680.629 661.997 788.026 714.416 568.44 464.639 605.006 597.909 464.309 595.508 758.904 724.145 595.096 618.909 748.648 713.559 569.521 463.957 608.467 582.337 461.398 </DataArray>
<DataArray type="Float32" Name="E_field" format="ascii">
0 0 0 0 0 0 0 0 0 0 0 0 0 0 0 0 0 0 0 0 0 0 0 0 0 0 0 0 0 0 0 0 0 0 0 0 0 0 0 0 0 0 0 0 0 0 0 0 0 0 0 0 0 0 0 0 0 0 0 0 0 0 0 0 </DataArray>
</CellData>
<PointData Scalars="number_density">
<DataArray type="Float32" Name="number_density" format="ascii">
5.8176e+12 5.9584e+12 6.3168e+12 7.1168e+12 6.0864e+12 6.656e+12 6.5536e+12 5.2544e+12 6.096e+12 6.4064e+12 6.1984e+12 6.3808e+12 7.0688e+12 6.8256e+12 7.2736e+12 8.416e+12 7.8592e+12 7.1712e+12 6.7168e+12 6.0128e+12 6.6784e+12 7.4144e+12 7.1072e+12 7.1744e+12 7.5264e+12 6.9568e+12 6.9344e+12 6.7904e+12 5.76e+12 5.5744e+12 5.8944e+12 5.9904e+12 6.048e+12 6.464e+12 6.368e+12 6.4864e+12 7.0208e+12 6.8416e+12 6.8032e+12 7.5104e+12 7.1424e+12 7.3088e+12 6.9344e+12 5.8112e+12 8.1728e+12 7.9264e+12 6.7312e+12 9.0832e+12 9.4496e+12 7.7776e+12 7.9088e+12 8.416e+12 7.2432e+12 7.1056e+12 7.3536e+12 6.4672e+12 8.7984e+12 9.8144e+12 8.1184e+12 8.2752e+12 9.1712e+12 7.9168e+12 6.912e+12 7.928e+12 7.4032e+12 7.8016e+12 9.496e+12 8.6048e+12 7.1568e+12 8.3104e+12 7.8064e+12 7.4512e+12 8.5856e+12 7.912e+12 8.344e+12 9.7104e+12 8.664e+12 7.5376e+12 8.3904e+12 7.744e+12 8.328e+12 9.232e+12 8.008e+12 1.00672e+13 1.0904e+13 8.44e+12 8.7952e+12 8.8944e+12 6.9088e+12 7.6832e+12 7.6064e+12 6.296e+12 7.7376e+12 8.3744e+12 6.9424e+12 6.7328e+12 7.4672e+12 6.736e+12 1.0848e+13 1.2636e+13 9.108e+12 1.19936e+13 1.57232e+13 1.13696e+13 8.9992e+12 1.14984e+13 9.4176e+12 1.3892e+13 1.79736e+13 1.26824e+13 1.66048e+13 2.38648e+13 1.6892e+13 1.16472e+13 1.60912e+13 1.2732e+13 1.06544e+13 1.3336e+13 1.05944e+13 1.2652e+13 1.7184e+13 1.33256e+13 9.74e+12 1.26192e+13 1.06384e+13 </DataArray>
<DataArray type="Float32" Name="potential" format="ascii">
0 0 0 0 0 0 0 0 0 0 0 0 0 0 0 0 0 0 0 0 0 0 0 0 0 0 0 0 0 0 0 0 0 0 0 0 0 0 0 0 0 0 0 0 0 0 0 0 0 0 0 0 0 0 0 0 0 0 0 0 0 0 0 0 0 0 0 0 0 0 0 0 0 0 0 0 0 0 0 0 0 0 0 0 0 0 0 0 0 0 0 0 0 0 0 0 0 0 0 0 0 0 0 0 0 0 0 0 0 0 0 0 0 0 0 0 0 0 0 0 0 0 0 0 0 </DataArray>
<DataArray type="Float32" Name="temperature" format="ascii">
598.339 596.199 596.549 668.11 608.312 595.669 586.828 601.953 641.442 704.015 659.842 671.015 728.912 654.271 670.272 764.645 726.702 701.53 704.049 635.743 675.963 747.397 673.424 673.345 759.522 677.426 680.268 732.297 646.42 661.157 729.095 673.071 654.58 728.719 677.464 658.342 732.169 669.761 650.156 703.955 645.488 715.328 721.792 641.495 796.009 829.586 717.649 876.822 948.366 805.874 758.714 835.261 741.604 779.313 854.705 736.583 899.742 1022.45 862.557 793.636 912.055 795.265 732.302 849.615 776.017 838.095 999.97 887.581 762.254 880.798 785.177 747.985 844.771 768.966 829.167 958.665 873.715 735.431 831.956 762.374 767.255 871.519 779.534 902.289 1031.2 877.384 817.776 872.557 741.342 793.807 856.946 744.483 849.945 996.286 862.913 741.093 864.595 777.909 959.271 1087.2 894.23 1055.93 1280.97 1067.18 871.697 1054.85 931.633 1114.68 1338.64 1093.65 1265.18 1599 1319.23 1020.69 1275.95 1108.06 920.028 1095.89 952.852 1048.81 1295.51 1120.36 893.535 1075.78 949.866 </DataArray>
<DataArray type="Float32" Name="velocity" format="ascii">
574.925 463.957 464.639 387.947 552.709 461.398 464.309 627.52 652.702 670.973 552.677 537.12 583.441 522.505 483.845 443.765 415.523 474.87 643.502 651.165 615.13 584.105 503.727 508.022 548.146 523.652 532.742 651.36 686.017 730.853 774.49 652.251 653.693 707.043 631.749 533.2 567.532 516.084 530.875 572.897 523.175 473.313 632.599 682.972 510.921 704.063 730.202 508.366 679.673 735.229 541.559 625.762 615.974 703.898 815.346 785.533 632.386 687.843 704.997 540.969 577.684 580.717 724.135 754.52 685.233 723.956 705.306 639.548 610.555 613.702 557.157 597.958 620.926 563.095 636.129 639.996 591.535 588.884 617.35 573.451 532.192 561.849 564.914 446.868 507.68 652.433 465.93 617.084 723.967 560.965 723.968 793.162 714.676 808.284 848.468 726.086 778.646 733.993 535.415 655.853 807.562 709.765 717.817 831.14 779.582 783.878 756.832 429.469 363.639 647.232 563.733 252.404 576.895 736.11 633.577 631.649 550.795 512.172 570.918 596.633 457.549 532.118 643.315 597.382 564.444 </DataArray>
<DataArray type="Float32" Name="E_field" format="ascii">
0 0 0 0 0 0 0 0 0 0 0 0 0 0 0 0 0 0 0 0 0 0 0 0 0 0 0 0 0 0 0 0 0 0 0 0 0 0 0 0 0 0 0 0 0 0 0 0 0 0 0 0 0 0 0 0 0 0 0 0 0 0 0 0 0 0 0 0 0 0 0 0 0 0 0 0 0 0 0 0 0 0 0 0 0 0 0 0 0 0 0 0 0 0 0 0 0 0 0 0 0 0 0 0 0 0 0 0 0 0 0 0 0 0 0 0 0 0 0 0 0 0 0 0 0 </DataArray>
</PointData>
</Piece>
</UnstructuredGrid>
</VTKFile>
