<VTKFile type="UnstructuredGrid" version="0.1" byte_order="LittleEndian">
<UnstructuredGrid>
<Piece NumberOfPoints="125" NumberOfCells="64">
<Points>
<DataArray type="Float32" NumberOfComponents="3" format="ascii">
-0.5 -0.5 -0.5 0.5 -0.5 -0.5 0.5 0.5 -0.5 -0.5 0.5 -0.5 -0.5 -0.5 0.5 0.5 -0.5 0.5 0.5 0.5 0.5 -0.5 0.5 0.5 -0.25 -0.5 -0.5 0 -0.5 -0.5 0.25 -0.5 -0.5 0.5 -0.25 -0.5 0.5 0 -0.5 0.5 0.25 -0.5 0.25 0.5 -0.5 0 0.5 -0.5 -0.25 0.5 -0.5 -0.5 0.25 -0.5 -0.5 0 -0.5 -0.5 -0.25 -0.5 -0.25 -0.5 0.5 0 -0.5 0.5 0.25 -0.5 0.5 0.5 -0.25 0.5 0.5 0 0.5 0.5 0.25 0.5 0.25 0.5 0.5 0 0.5 0.5 -0.25 0.5 0.5 -0.5 0.25 0.5 -0.5 0 0.5 -0.5 -0.25 0.5 -0.5 -0.5 -0.25 -0.5 -0.5 0 -0.5 -0.5 0.25 0.5 -0.5 -0.25 0.5 -0.5 0 0.5 -0.5 0.25 0.5 0.5 -0.25 0.5 0.5 0 0.5 0.5 0.25 -0.5 0.5 -0.25 -0.5 0.5 0 -0.5 0.5 0.25 -0.25 0.25 -0.5 -0.25 0 -0.5 -0.25 -0.25 -0.5 0 0.25 -0.5 0 0 -0.5 0 -0.25 -0.5 0.25 0.25 -0.5 0.25 0 -0.5 0.25 -0.25 -0.5 -0.25 -0.25 0.5 -0.25 0 0.5 -0.25 0.25 0.5 0 -0.25 0.5 0 0 0.5 0 0.25 0.5 0.25 -0.25 0.5 0.25 0 0.5 0.25 0.25 0.5 -0.25 -0.5 -0.25 -0.25 -0.5 0 -0.25 -0.5 0.25 0 -0.5 -0.25 0 -0.5 0 0 -0.5 0.25 0.25 -0.5 -0.25 0.25 -0.5 0 0.25 -0.5 0.25 0.5 -0.25 -0.25 0.5 -0.25 0 0.5 -0.25 0.25 0.5 0 -0.25 0.5 0 0 0.5 0 0.25 0.5 0.25 -0.25 0.5 0.25 0 0.5 0.25 0.25 0.25 0.5 -0.25 0.25 0.5 0 0.25 0.5 0.25 0 0.5 -0.25 0 0.5 0 0 0.5 0.25 -0.25 0.5 -0.25 -0.25 0.5 0 -0.25 0.5 0.25 -0.5 0.25 -0.25 -0.5 0.25 0 -0.5 0.25 0.25 -0.5 0 -0.25 -0.5 0 0 -0.5 0 0.25 -0.5 -0.25 -0.25 -0.5 -0.25 0 -0.5 -0.25 0.25 -0.25 0.25 -0.25 -0.25 0.25 0 -0.25 0.25 0.25 -0.25 0 -0.25 -0.25 0 0 -0.25 0 0.25 -0.25 -0.25 -0.25 -0.25 -0.25 0 -0.25 -0.25 0.25 0 0.25 -0.25 0 0.25 0 0 0.25 0.25 0 0 -0.25 0 0 0 0 0 0.25 0 -0.25 -0.25 0 -0.25 0 0 -0.25 0.25 0.25 0.25 -0.25 0.25 0.25 0 0.25 0.25 0.25 0.25 0 -0.25 0.25 0 0 0.25 0 0.25 0.25 -0.25 -0.25 0.25 -0.25 0 0.25 -0.25 0.25 </DataArray>
</Points>
<Cells>
<DataArray type="Int32" Name="connectivity" format="ascii">
44 16 3 17 98 86 41 89 98 86 41 89 99 87 42 90 99 87 42 90 100 88 43 91 100 88 43 91 55 28 7 29 45 44 17 18 101 98 89 92 101 98 89 92 102 99 90 93 102 99 90 93 103 100 91 94 103 100 91 94 54 55 29 30 46 45 18 19 104 101 92 95 104 101 92 95 105 102 93 96 105 102 93 96 106 103 94 97 106 103 94 97 53 54 30 31 8 46 19 0 62 104 95 32 62 104 95 32 63 105 96 33 63 105 96 33 64 106 97 34 64 106 97 34 20 53 31 4 47 15 16 44 107 83 86 98 107 83 86 98 108 84 87 99 108 84 87 99 109 85 88 100 109 85 88 100 58 27 28 55 48 47 44 45 110 107 98 101 110 107 98 101 111 108 99 102 111 108 99 102 112 109 100 103 112 109 100 103 57 58 55 54 49 48 45 46 113 110 101 104 113 110 101 104 114 111 102 105 114 111 102 105 115 112 103 106 115 112 103 106 56 57 54 53 9 49 46 8 65 113 104 62 65 113 104 62 66 114 105 63 66 114 105 63 67 115 106 64 67 115 106 64 21 56 53 20 50 14 15 47 116 80 83 107 116 80 83 107 117 81 84 108 117 81 84 108 118 82 85 109 118 82 85 109 61 26 27 58 51 50 47 48 119 116 107 110 119 116 107 110 120 117 108 111 120 117 108 111 121 118 109 112 121 118 109 112 60 61 58 57 52 51 48 49 122 119 110 113 122 119 110 113 123 120 111 114 123 120 111 114 124 121 112 115 124 121 112 115 59 60 57 56 10 52 49 9 68 122 113 65 68 122 113 65 69 123 114 66 69 123 114 66 70 124 115 67 70 124 115 67 22 59 56 21 13 2 14 50 77 38 80 116 77 38 80 116 78 39 81 117 78 39 81 117 79 40 82 118 79 40 82 118 25 6 26 61 12 13 50 51 74 77 116 119 74 77 116 119 75 78 117 120 75 78 117 120 76 79 118 121 76 79 118 121 24 25 61 60 11 12 51 52 71 74 119 122 71 74 119 122 72 75 120 123 72 75 120 123 73 76 121 124 73 76 121 124 23 24 60 59 1 11 52 10 35 71 122 68 35 71 122 68 36 72 123 69 36 72 123 69 37 73 124 70 37 73 124 70 5 23 59 22 </DataArray>
<DataArray type="Int32" Name="offsets" format="ascii">
8 16 24 32 40 48 56 64 72 80 88 96 104 112 120 128 136 144 152 160 168 176 184 192 200 208 216 224 232 240 248 256 264 272 280 288 296 304 312 320 328 336 344 352 360 368 376 384 392 400 408 416 424 432 440 448 456 464 472 480 488 496 504 512 </DataArray>
<DataArray type="UInt8" Name="types" format="ascii">
12 12 12 12 12 12 12 12 12 12 12 12 12 12 12 12 12 12 12 12 12 12 12 12 12 12 12 12 12 12 12 12 12 12 12 12 12 12 12 12 12 12 12 12 12 12 12 12 12 12 12 12 12 12 12 12 12 12 12 12 12 12 12 12 </DataArray>
</Cells>
<CellData Scalars="scalars">
<DataArray type="Float32" Name="number_density" format="ascii">
9.9904e+12 9.792e+12 9.7408e+12 9.696e+12 9.9776e+12 1.00864e+13 9.7728e+12 9.3696e+12 1.00288e+13 9.6128e+12 9.8624e+12 9.8368e+12 9.9328e+12 9.8688e+12 9.888e+12 9.9584e+12 9.4784e+12 1.01696e+13 1.01056e+13 9.9904e+12 9.8752e+12 1.07584e+13 1.04448e+13 9.9072e+12 9.6576e+12 1.09312e+13 1.05664e+13 9.92e+12 9.8176e+12 1.04e+13 9.7536e+12 9.4272e+12 9.6128e+12 1.00736e+13 1.02272e+13 9.7472e+12 1.0176e+13 1.07712e+13 1.04576e+13 1.03232e+13 1.02976e+13 1.0528e+13 1.08096e+13 1.06432e+13 9.7856e+12 1.01824e+13 1.01632e+13 9.92e+12 9.696e+12 9.8368e+12 9.8496e+12 9.9264e+12 1.0016e+13 9.4976e+12 9.9904e+12 1.0144e+13 9.9584e+12 1.01632e+13 1.01696e+13 9.9008e+12 9.024e+12 9.856e+12 9.6384e+12 9.9968e+12 </DataArray>
<DataArray type="Float32" Name="potential" format="ascii">
0 0 0 0 0 0 0 0 0 0 0 0 0 0 0 0 0 0 0 0 0 0 0 0 0 0 0 0 0 0 0 0 0 0 0 0 0 0 0 0 0 0 0 0 0 0 0 0 0 0 0 0 0 0 0 0 0 0 0 0 0 0 0 0 </DataArray>
<DataArray type="Float32" Name="temperature" format="ascii">
688.836 695.587 694.708 676.996 691.795 715.133 719.395 677.591 688.181 723.615 703.509 706.383 667.604 676.439 701.954 690.33 685.385 734.381 705.269 677.012 722.918 760.96 744.039 700.028 703.584 747.345 738.144 717.738 718.702 703.862 716.173 685.905 693.794 734.769 721.367 705.761 714.756 745.731 775.763 693.788 722.425 745.203 750.413 719.43 692.137 721.614 719.164 688.69 660.321 675.033 685.984 682.625 691.304 726.205 703.621 714.266 702.26 711.456 728.807 709.956 690.736 692.626 722.547 681.643 </DataArray>
<DataArray type="Float32" Name="velocity" format="ascii">
134.135 202.766 235.103 207.075 175.755 252.275 312.574 253.443 228.86 286.884 307.205 254.577 202.01 238.61 238.323 191.141 141.572 168.37 249.749 250.283 216.377 175.301 257.093 289.399 276.911 261.352 260.09 276.422 226.212 260.502 262.452 205.197 157.971 188.887 225.756 194.751 209.869 160.262 170.234 227.206 244.901 208.953 196.852 214.707 200.136 265.592 238.673 182.008 157.765 173.371 178.338 146.983 187.579 237.779 238.897 199.182 187.747 224.687 222.708 179.108 148.728 189.785 182.189 148.661 </DataArray>
<DataArray type="Float32" Name="E_field" format="ascii">
0 0 0 0 0 0 0 0 0 0 0 0 0 0 0 0 0 0 0 0 0 0 0 0 0 0 0 0 0 0 0 0 0 0 0 0 0 0 0 0 0 0 0 0 0 0 0 0 0 0 0 0 0 0 0 0 0 0 0 0 0 0 0 0 </DataArray>
</CellData>
<PointData Scalars="number_density">
<DataArray type="Float32" Name="number_density" format="ascii">
9.9328e+12 9.024e+12 9.696e+12 9.9904e+12 9.9584e+12 9.9968e+12 9.9264e+12 9.696e+12 9.8752e+12 9.8016e+12 9.4048e+12 9.4912e+12 9.9872e+12 9.856e+12 9.6544e+12 9.5456e+12 9.7344e+12 9.984e+12 1.00032e+13 9.9808e+12 9.6928e+12 9.6736e+12 9.9584e+12 9.9488e+12 1.00224e+13 1.00352e+13 9.8368e+12 9.8688e+12 9.8432e+12 9.5328e+12 9.6032e+12 9.8976e+12 9.9008e+12 9.8784e+12 9.9232e+12 9.44e+12 9.7472e+12 9.8176e+12 9.7664e+12 9.8432e+12 9.888e+12 9.8912e+12 9.7664e+12 9.7184e+12 9.8304e+12 9.8848e+12 9.8592e+12 9.7856e+12 1.00016e+13 9.8896e+12 9.8752e+12 1.0112e+13 9.7664e+12 9.7856e+12 9.7584e+12 9.7408e+12 9.9776e+12 1.01984e+13 9.992e+12 1.01152e+13 1.02528e+13 1.00352e+13 1.00048e+13 9.9776e+12 9.7568e+12 1.00464e+13 1.01248e+13 9.816e+12 9.712e+12 9.96e+12 9.9296e+12 9.7504e+12 9.9568e+12 9.9264e+12 9.9088e+12 9.9552e+12 1.00512e+13 9.7616e+12 9.7936e+12 9.9776e+12 9.8048e+12 9.9968e+12 9.9376e+12 9.8336e+12 1.0144e+13 1.00176e+13 9.8576e+12 9.952e+12 9.8832e+12 9.9616e+12 9.848e+12 9.6448e+12 9.9264e+12 9.8336e+12 9.7104e+12 9.8608e+12 9.808e+12 9.8864e+12 1.0016e+13 1.01088e+13 9.8784e+12 1.0116e+13 1.02544e+13 9.96e+12 1.00312e+13 1.01104e+13 9.9016e+12 1.01144e+13 1.0376e+13 1.01504e+13 1.03744e+13 1.06584e+13 1.0384e+13 1.02e+13 1.04168e+13 1.01504e+13 9.96e+12 1.0088e+13 1.00832e+13 1.0176e+13 1.02984e+13 1.03048e+13 9.9744e+12 1.01888e+13 1.01552e+13 </DataArray>
<DataArray type="Float32" Name="potential" format="ascii">
0 0 0 0 0 0 0 0 0 0 0 0 0 0 0 0 0 0 0 0 0 0 0 0 0 0 0 0 0 0 0 0 0 0 0 0 0 0 0 0 0 0 0 0 0 0 0 0 0 0 0 0 0 0 0 0 0 0 0 0 0 0 0 0 0 0 0 0 0 0 0 0 0 0 0 0 0 0 0 0 0 0 0 0 0 0 0 0 0 0 0 0 0 0 0 0 0 0 0 0 0 0 0 0 0 0 0 0 0 0 0 0 0 0 0 0 0 0 0 0 0 0 0 0 0 </DataArray>
<DataArray type="Float32" Name="temperature" format="ascii">
667.604 690.736 660.321 688.836 690.33 681.643 682.625 676.996 693.153 705.42 691.436 696.498 696.782 675.812 677.057 689.589 687.111 690.316 689.988 677.893 688.117 687.298 685.167 695.799 712.111 698.446 694.193 691.386 677.004 677.294 691.987 698.356 672.021 689.197 696.142 691.681 707.587 702.095 667.677 680.508 684.305 692.212 695.147 685.852 697.234 701.62 694.518 704.213 715.921 709.212 690.044 707.686 701.889 700.089 700.435 682.907 702.941 707.746 694.147 699.93 709.36 699.11 691.652 699.607 698.59 709.079 715.203 702.483 699.278 713.988 703.011 699.269 713.859 710.738 707.806 717.522 714.162 688.216 697.711 696.624 690.979 704.288 698.934 712.082 723.947 702.352 701.047 707.486 688.496 697.838 706.206 692.173 704.681 715.413 701.72 688.96 701.379 700.544 711.875 721.184 699.38 719.191 731.517 713.353 703.666 713.88 707.517 724.087 740.285 715.378 732.865 750.95 729.918 719.359 730.24 716.957 705.239 721.059 710.397 719.918 735.9 724.506 709.807 723.979 715.081 </DataArray>
<DataArray type="Float32" Name="velocity" format="ascii">
202.01 148.728 157.765 134.135 191.141 148.661 146.983 207.075 212.7 207.52 170.584 163.755 184.9 166.157 156.179 137.807 135.004 150.255 200.62 213.526 195.074 185.831 157.204 158.524 182.729 169.51 164.109 215.911 224.78 228.786 249.283 219.178 213.824 233.416 209.43 166.689 181.947 164.686 163.606 171.381 159.614 164.243 211.717 219.667 157.807 216.524 228.82 162.666 221.425 226.736 164.965 194.153 185.61 223.549 255.797 243.098 201.13 224.009 228.239 168.749 186.622 179.864 224.05 234.99 214.059 226.777 235.412 204.234 191.721 205.308 175.422 179.542 193.86 173.524 198.762 211.538 194.067 181.078 194.467 181.14 163.186 176.289 174.382 139.407 178.326 215.935 149.579 197.756 228.238 178.232 238.379 246.877 220.939 268.648 268.706 229.578 254.971 237.126 159.779 203.957 244.188 210.346 220.483 251.67 234.678 238.294 231.792 132.485 122.444 205.567 175.23 62.1633 178.451 222.22 197.055 195.431 166.111 163.297 175.783 182.34 151.504 170.161 191.699 188.087 172.606 </DataArray>
<DataArray type="Float32" Name="E_field" format="ascii">
0 0 0 0 0 0 0 0 0 0 0 0 0 0 0 0 0 0 0 0 0 0 0 0 0 0 0 0 0 0 0 0 0 0 0 0 0 0 0 0 0 0 0 0 0 0 0 0 0 0 0 0 0 0 0 0 0 0 0 0 0 0 0 0 0 0 0 0 0 0 0 0 0 0 0 0 0 0 0 0 0 0 0 0 0 0 0 0 0 0 0 0 0 0 0 0 0 0 0 0 0 0 0 0 0 0 0 0 0 0 0 0 0 0 0 0 0 0 0 0 0 0 0 0 0 </DataArray>
</PointData>
</Piece>
</UnstructuredGrid>
</VTKFile>
