<VTKFile type="UnstructuredGrid" version="0.1" byte_order="LittleEndian">
<UnstructuredGrid>
<Piece NumberOfPoints="125" NumberOfCells="64">
<Points>
<DataArray type="Float32" NumberOfComponents="3" format="ascii">
-0.5 -0.5 -0.5 0.5 -0.5 -0.5 0.5 0.5 -0.5 -0.5 0.5 -0.5 -0.5 -0.5 0.5 0.5 -0.5 0.5 0.5 0.5 0.5 -0.5 0.5 0.5 -0.25 -0.5 -0.5 0 -0.5 -0.5 0.25 -0.5 -0.5 0.5 -0.25 -0.5 0.5 0 -0.5 0.5 0.25 -0.5 0.25 0.5 -0.5 0 0.5 -0.5 -0.25 0.5 -0.5 -0.5 0.25 -0.5 -0.5 0 -0.5 -0.5 -0.25 -0.5 -0.25 -0.5 0.5 0 -0.5 0.5 0.25 -0.5 0.5 0.5 -0.25 0.5 0.5 0 0.5 0.5 0.25 0.5 0.25 0.5 0.5 0 0.5 0.5 -0.25 0.5 0.5 -0.5 0.25 0.5 -0.5 0 0.5 -0.5 -0.25 0.5 -0.5 -0.5 -0.25 -0.5 -0.5 0 -0.5 -0.5 0.25 0.5 -0.5 -0.25 0.5 -0.5 0 0.5 -0.5 0.25 0.5 0.5 -0.25 0.5 0.5 0 0.5 0.5 0.25 -0.5 0.5 -0.25 -0.5 0.5 0 -0.5 0.5 0.25 -0.25 0.25 -0.5 -0.25 0 -0.5 -0.25 -0.25 -0.5 0 0.25 -0.5 0 0 -0.5 0 -0.25 -0.5 0.25 0.25 -0.5 0.25 0 -0.5 0.25 -0.25 -0.5 -0.25 -0.25 0.5 -0.25 0 0.5 -0.25 0.25 0.5 0 -0.25 0.5 0 0 0.5 0 0.25 0.5 0.25 -0.25 0.5 0.25 0 0.5 0.25 0.25 0.5 -0.25 -0.5 -0.25 -0.25 -0.5 0 -0.25 -0.5 0.25 0 -0.5 -0.25 0 -0.5 0 0 -0.5 0.25 0.25 -0.5 -0.25 0.25 -0.5 0 0.25 -0.5 0.25 0.5 -0.25 -0.25 0.5 -0.25 0 0.5 -0.25 0.25 0.5 0 -0.25 0.5 0 0 0.5 0 0.25 0.5 0.25 -0.25 0.5 0.25 0 0.5 0.25 0.25 0.25 0.5 -0.25 0.25 0.5 0 0.25 0.5 0.25 0 0.5 -0.25 0 0.5 0 0 0.5 0.25 -0.25 0.5 -0.25 -0.25 0.5 0 -0.25 0.5 0.25 -0.5 0.25 -0.25 -0.5 0.25 0 -0.5 0.25 0.25 -0.5 0 -0.25 -0.5 0 0 -0.5 0 0.25 -0.5 -0.25 -0.25 -0.5 -0.25 0 -0.5 -0.25 0.25 -0.25 0.25 -0.25 -0.25 0.25 0 -0.25 0.25 0.25 -0.25 0 -0.25 -0.25 0 0 -0.25 0 0.25 -0.25 -0.25 -0.25 -0.25 -0.25 0 -0.25 -0.25 0.25 0 0.25 -0.25 0 0.25 0 0 0.25 0.25 0 0 -0.25 0 0 0 0 0 0.25 0 -0.25 -0.25 0 -0.25 0 0 -0.25 0.25 0.25 0.25 -0.25 0.25 0.25 0 0.25 0.25 0.25 0.25 0 -0.25 0.25 0 0 0.25 0 0.25 0.25 -0.25 -0.25 0.25 -0.25 0 0.25 -0.25 0.25 </DataArray>
</Points>
<Cells>
<DataArray type="Int32" Name="connectivity" format="ascii">
44 16 3 17 98 86 41 89 98 86 41 89 99 87 42 90 99 87 42 90 100 88 43 91 100 88 43 91 55 28 7 29 45 44 17 18 101 98 89 92 101 98 89 92 102 99 90 93 102 99 90 93 103 100 91 94 103 100 91 94 54 55 29 30 46 45 18 19 104 101 92 95 104 101 92 95 105 102 93 96 105 102 93 96 106 103 94 97 106 103 94 97 53 54 30 31 8 46 19 0 62 104 95 32 62 104 95 32 63 105 96 33 63 105 96 33 64 106 97 34 64 106 97 34 20 53 31 4 47 15 16 44 107 83 86 98 107 83 86 98 108 84 87 99 108 84 87 99 109 85 88 100 109 85 88 100 58 27 28 55 48 47 44 45 110 107 98 101 110 107 98 101 111 108 99 102 111 108 99 102 112 109 100 103 112 109 100 103 57 58 55 54 49 48 45 46 113 110 101 104 113 110 101 104 114 111 102 105 114 111 102 105 115 112 103 106 115 112 103 106 56 57 54 53 9 49 46 8 65 113 104 62 65 113 104 62 66 114 105 63 66 114 105 63 67 115 106 64 67 115 106 64 21 56 53 20 50 14 15 47 116 80 83 107 116 80 83 107 117 81 84 108 117 81 84 108 118 82 85 109 118 82 85 109 61 26 27 58 51 50 47 48 119 116 107 110 119 116 107 110 120 117 108 111 120 117 108 111 121 118 109 112 121 118 109 112 60 61 58 57 52 51 48 49 122 119 110 113 122 119 110 113 123 120 111 114 123 120 111 114 124 121 112 115 124 121 112 115 59 60 57 56 10 52 49 9 68 122 113 65 68 122 113 65 69 123 114 66 69 123 114 66 70 124 115 67 70 124 115 67 22 59 56 21 13 2 14 50 77 38 80 116 77 38 80 116 78 39 81 117 78 39 81 117 79 40 82 118 79 40 82 118 25 6 26 61 12 13 50 51 74 77 116 119 74 77 116 119 75 78 117 120 75 78 117 120 76 79 118 121 76 79 118 121 24 25 61 60 11 12 51 52 71 74 119 122 71 74 119 122 72 75 120 123 72 75 120 123 73 76 121 124 73 76 121 124 23 24 60 59 1 11 52 10 35 71 122 68 35 71 122 68 36 72 123 69 36 72 123 69 37 73 124 70 37 73 124 70 5 23 59 22 </DataArray>
<DataArray type="Int32" Name="offsets" format="ascii">
8 16 24 32 40 48 56 64 72 80 88 96 104 112 120 128 136 144 152 160 168 176 184 192 200 208 216 224 232 240 248 256 264 272 280 288 296 304 312 320 328 336 344 352 360 368 376 384 392 400 408 416 424 432 440 448 456 464 472 480 488 496 504 512 </DataArray>
<DataArray type="UInt8" Name="types" format="ascii">
12 12 12 12 12 12 12 12 12 12 12 12 12 12 12 12 12 12 12 12 12 12 12 12 12 12 12 12 12 12 12 12 12 12 12 12 12 12 12 12 12 12 12 12 12 12 12 12 12 12 12 12 12 12 12 12 12 12 12 12 12 12 12 12 </DataArray>
</Cells>
<CellData Scalars="scalars">
<DataArray type="Float32" Name="number_density" format="ascii">
9.8432e+12 9.5936e+12 9.6192e+12 9.3696e+12 9.8816e+12 1.0048e+13 9.6576e+12 9.2288e+12 9.8112e+12 9.632e+12 9.8816e+12 9.536e+12 9.7664e+12 9.6e+12 9.792e+12 9.6896e+12 9.4528e+12 1.03936e+13 1.00544e+13 9.8944e+12 9.9072e+12 1.13664e+13 1.12512e+13 9.8624e+12 9.696e+12 1.14816e+13 1.10208e+13 9.9328e+12 9.4592e+12 1.03872e+13 9.9008e+12 9.3568e+12 9.5424e+12 1.01184e+13 1.01888e+13 9.6128e+12 1.02016e+13 1.15008e+13 1.10784e+13 1.03296e+13 1.01376e+13 1.10976e+13 1.14944e+13 1.05856e+13 9.7088e+12 1.01184e+13 1.02656e+13 9.7216e+12 9.504e+12 9.664e+12 9.7472e+12 9.7152e+12 9.8752e+12 9.76e+12 1.00096e+13 9.8368e+12 9.7344e+12 1.0272e+13 1.02208e+13 9.9008e+12 8.8768e+12 9.5808e+12 9.4848e+12 9.7472e+12 </DataArray>
<DataArray type="Float32" Name="potential" format="ascii">
0 0 0 0 0 0 0 0 0 0 0 0 0 0 0 0 0 0 0 0 0 0 0 0 0 0 0 0 0 0 0 0 0 0 0 0 0 0 0 0 0 0 0 0 0 0 0 0 0 0 0 0 0 0 0 0 0 0 0 0 0 0 0 0 </DataArray>
<DataArray type="Float32" Name="temperature" format="ascii">
682.798 700.356 691.291 672.536 699.635 732.811 723.808 672.854 686.541 734.825 720.993 716.651 663.241 675.445 704.954 677.86 690.805 745.34 724.114 667.269 738.718 810.805 796.491 712.597 715.958 792.565 789.578 720.858 722.179 714.151 730.538 700.425 685.865 744.091 741.437 703.642 722.038 801.427 821.072 715.905 732.946 782.645 802.817 732.074 685.44 746.927 741.081 699.533 658.56 679.682 680.833 680.787 695.972 729.206 722.56 714.181 697.74 731.42 738.517 716.04 683.906 682.329 718.035 667.07 </DataArray>
<DataArray type="Float32" Name="velocity" format="ascii">
176.377 255.006 300.472 268.125 234.259 328.241 413.97 334.135 298.535 370.53 398.533 330.365 253.977 305.686 305.401 239.833 188.376 222.746 330.661 323.753 286.484 232.691 337.531 383.636 360.995 350.582 345.595 357.659 293.661 346.578 343.609 264.732 209.242 247.713 287.581 253.862 274.568 218.718 227.532 290.18 317.38 279.704 253.5 282.56 264.904 345.032 312.634 233.315 196.062 233.491 231.002 192.883 252.214 305.038 307.954 251.761 242.562 297.218 287.553 229.69 195.665 250.472 236.244 198.063 </DataArray>
<DataArray type="Float32" Name="E_field" format="ascii">
0 0 0 0 0 0 0 0 0 0 0 0 0 0 0 0 0 0 0 0 0 0 0 0 0 0 0 0 0 0 0 0 0 0 0 0 0 0 0 0 0 0 0 0 0 0 0 0 0 0 0 0 0 0 0 0 0 0 0 0 0 0 0 0 </DataArray>
</CellData>
<PointData Scalars="number_density">
<DataArray type="Float32" Name="number_density" format="ascii">
9.7664e+12 8.8768e+12 9.504e+12 9.8432e+12 9.6896e+12 9.7472e+12 9.7152e+12 9.3696e+12 9.6128e+12 9.584e+12 9.2928e+12 9.3056e+12 9.8048e+12 9.6896e+12 9.5232e+12 9.4976e+12 9.648e+12 9.8624e+12 9.8464e+12 9.7888e+12 9.5232e+12 9.5392e+12 9.7344e+12 9.824e+12 9.8688e+12 9.776e+12 9.664e+12 9.7536e+12 9.632e+12 9.2992e+12 9.3824e+12 9.6128e+12 9.6832e+12 9.696e+12 9.7408e+12 9.2288e+12 9.5328e+12 9.616e+12 9.584e+12 9.7056e+12 9.7312e+12 9.7184e+12 9.6064e+12 9.4944e+12 9.7712e+12 9.824e+12 9.6832e+12 9.776e+12 9.9856e+12 9.7504e+12 9.7808e+12 9.9872e+12 9.6144e+12 9.6288e+12 9.64e+12 9.5888e+12 9.8992e+12 1.01776e+13 9.9248e+12 9.9888e+12 1.01632e+13 9.8736e+12 9.8032e+12 9.92e+12 9.6848e+12 9.9184e+12 1.0168e+13 9.8112e+12 9.5712e+12 9.8624e+12 9.8048e+12 9.616e+12 9.8896e+12 9.8384e+12 9.9104e+12 1.00656e+13 9.992e+12 9.7008e+12 9.7952e+12 9.8272e+12 9.7072e+12 9.9296e+12 9.816e+12 9.8768e+12 1.01888e+13 9.9376e+12 9.8208e+12 9.9152e+12 9.7344e+12 9.8416e+12 9.7296e+12 9.4688e+12 9.8432e+12 9.8048e+12 9.576e+12 9.7024e+12 9.7264e+12 9.7248e+12 1.00608e+13 1.0248e+13 9.8672e+12 1.0228e+13 1.05424e+13 1.00464e+13 9.9792e+12 1.0212e+13 9.8888e+12 1.03104e+13 1.0744e+13 1.0284e+13 1.06736e+13 1.12864e+13 1.06944e+13 1.02608e+13 1.07208e+13 1.02848e+13 1.00208e+13 1.02584e+13 1.00648e+13 1.03224e+13 1.06792e+13 1.0432e+13 9.9408e+12 1.03168e+13 1.01776e+13 </DataArray>
<DataArray type="Float32" Name="potential" format="ascii">
0 0 0 0 0 0 0 0 0 0 0 0 0 0 0 0 0 0 0 0 0 0 0 0 0 0 0 0 0 0 0 0 0 0 0 0 0 0 0 0 0 0 0 0 0 0 0 0 0 0 0 0 0 0 0 0 0 0 0 0 0 0 0 0 0 0 0 0 0 0 0 0 0 0 0 0 0 0 0 0 0 0 0 0 0 0 0 0 0 0 0 0 0 0 0 0 0 0 0 0 0 0 0 0 0 0 0 0 0 0 0 0 0 0 0 0 0 0 0 0 0 0 0 0 0 </DataArray>
<DataArray type="Float32" Name="temperature" format="ascii">
663.241 683.906 658.56 682.798 677.86 667.07 680.787 672.536 692.71 703.809 684.673 690.823 696.856 677.266 672.212 688.335 686.801 691.216 693.088 674.891 689.142 699.979 683.302 691.555 715.11 697.484 692.215 685.456 669.902 672.695 694.753 697.255 669.343 690.199 691.407 683.118 700.182 692.553 669.121 680.257 680.81 691.577 695.824 681.913 702.989 710.213 696.98 709.356 727.415 714.131 690.609 712.174 700.008 703.948 705.74 681.314 713.222 720.359 699.854 703.679 719.55 703.629 693.754 706.272 703.444 717.174 733.174 717.894 699.65 722.093 706.43 698.849 717.575 709.916 713.585 730.426 722.824 690.855 703.07 699.59 692.049 711.511 701.675 716.525 738.745 709.116 704.825 715.275 688.802 703.9 712.067 690.122 713.453 728.109 708.577 690.013 709.054 705.114 725.158 740.627 707.62 738.982 762.734 731.729 713.113 732.881 720.232 742.386 773.097 735.316 762.138 799.675 761.424 736.601 762.538 739.613 714.605 740.039 722.552 736.674 766.208 745.396 717.919 742.972 726.896 </DataArray>
<DataArray type="Float32" Name="velocity" format="ascii">
253.977 195.665 196.062 176.377 239.833 198.063 192.883 268.125 272.351 271.387 225.243 213.783 243.43 216.308 199.769 184.914 177.707 200.063 263.591 273.992 248.447 239.71 206.157 208.978 231.059 218.422 215.105 280.19 291.732 299.195 325.043 281.019 272.83 298.468 265.765 220.034 237.26 215.729 212.64 225.636 207.517 209.749 269.853 281.423 208.907 283.354 296.476 216.238 287.315 295.868 217.459 255.013 243.059 287.797 334.511 318.363 260.008 293.235 296.752 220.417 238.417 231.298 291.129 305.747 276.445 297.354 306.076 266.692 252.213 266.792 229.458 236.52 252.994 227.533 259.921 272.078 249.446 236.599 252.43 234.344 213.213 228.731 226.172 183.861 230.34 280.207 193.747 257.42 295.999 233.001 307.973 322.543 290.125 348.665 352.625 296.25 327.446 305.098 210.184 266.714 320.053 277.07 290.28 330.773 307.344 312.86 301.25 175.955 160.344 268.497 228.961 82.5815 233.933 293.214 259.046 254.273 220.098 213.87 228.047 240.447 196.652 220.932 252.815 245.238 226.327 </DataArray>
<DataArray type="Float32" Name="E_field" format="ascii">
0 0 0 0 0 0 0 0 0 0 0 0 0 0 0 0 0 0 0 0 0 0 0 0 0 0 0 0 0 0 0 0 0 0 0 0 0 0 0 0 0 0 0 0 0 0 0 0 0 0 0 0 0 0 0 0 0 0 0 0 0 0 0 0 0 0 0 0 0 0 0 0 0 0 0 0 0 0 0 0 0 0 0 0 0 0 0 0 0 0 0 0 0 0 0 0 0 0 0 0 0 0 0 0 0 0 0 0 0 0 0 0 0 0 0 0 0 0 0 0 0 0 0 0 0 </DataArray>
</PointData>
</Piece>
</UnstructuredGrid>
</VTKFile>
