<VTKFile type="UnstructuredGrid" version="0.1" byte_order="LittleEndian">
<UnstructuredGrid>
<Piece NumberOfPoints="125" NumberOfCells="64">
<Points>
<DataArray type="Float32" NumberOfComponents="3" format="ascii">
-0.5 -0.5 -0.5 0.5 -0.5 -0.5 0.5 0.5 -0.5 -0.5 0.5 -0.5 -0.5 -0.5 0.5 0.5 -0.5 0.5 0.5 0.5 0.5 -0.5 0.5 0.5 -0.25 -0.5 -0.5 0 -0.5 -0.5 0.25 -0.5 -0.5 0.5 -0.25 -0.5 0.5 0 -0.5 0.5 0.25 -0.5 0.25 0.5 -0.5 0 0.5 -0.5 -0.25 0.5 -0.5 -0.5 0.25 -0.5 -0.5 0 -0.5 -0.5 -0.25 -0.5 -0.25 -0.5 0.5 0 -0.5 0.5 0.25 -0.5 0.5 0.5 -0.25 0.5 0.5 0 0.5 0.5 0.25 0.5 0.25 0.5 0.5 0 0.5 0.5 -0.25 0.5 0.5 -0.5 0.25 0.5 -0.5 0 0.5 -0.5 -0.25 0.5 -0.5 -0.5 -0.25 -0.5 -0.5 0 -0.5 -0.5 0.25 0.5 -0.5 -0.25 0.5 -0.5 0 0.5 -0.5 0.25 0.5 0.5 -0.25 0.5 0.5 0 0.5 0.5 0.25 -0.5 0.5 -0.25 -0.5 0.5 0 -0.5 0.5 0.25 -0.25 0.25 -0.5 -0.25 0 -0.5 -0.25 -0.25 -0.5 0 0.25 -0.5 0 0 -0.5 0 -0.25 -0.5 0.25 0.25 -0.5 0.25 0 -0.5 0.25 -0.25 -0.5 -0.25 -0.25 0.5 -0.25 0 0.5 -0.25 0.25 0.5 0 -0.25 0.5 0 0 0.5 0 0.25 0.5 0.25 -0.25 0.5 0.25 0 0.5 0.25 0.25 0.5 -0.25 -0.5 -0.25 -0.25 -0.5 0 -0.25 -0.5 0.25 0 -0.5 -0.25 0 -0.5 0 0 -0.5 0.25 0.25 -0.5 -0.25 0.25 -0.5 0 0.25 -0.5 0.25 0.5 -0.25 -0.25 0.5 -0.25 0 0.5 -0.25 0.25 0.5 0 -0.25 0.5 0 0 0.5 0 0.25 0.5 0.25 -0.25 0.5 0.25 0 0.5 0.25 0.25 0.25 0.5 -0.25 0.25 0.5 0 0.25 0.5 0.25 0 0.5 -0.25 0 0.5 0 0 0.5 0.25 -0.25 0.5 -0.25 -0.25 0.5 0 -0.25 0.5 0.25 -0.5 0.25 -0.25 -0.5 0.25 0 -0.5 0.25 0.25 -0.5 0 -0.25 -0.5 0 0 -0.5 0 0.25 -0.5 -0.25 -0.25 -0.5 -0.25 0 -0.5 -0.25 0.25 -0.25 0.25 -0.25 -0.25 0.25 0 -0.25 0.25 0.25 -0.25 0 -0.25 -0.25 0 0 -0.25 0 0.25 -0.25 -0.25 -0.25 -0.25 -0.25 0 -0.25 -0.25 0.25 0 0.25 -0.25 0 0.25 0 0 0.25 0.25 0 0 -0.25 0 0 0 0 0 0.25 0 -0.25 -0.25 0 -0.25 0 0 -0.25 0.25 0.25 0.25 -0.25 0.25 0.25 0 0.25 0.25 0.25 0.25 0 -0.25 0.25 0 0 0.25 0 0.25 0.25 -0.25 -0.25 0.25 -0.25 0 0.25 -0.25 0.25 </DataArray>
</Points>
<Cells>
<DataArray type="Int32" Name="connectivity" format="ascii">
44 16 3 17 98 86 41 89 98 86 41 89 99 87 42 90 99 87 42 90 100 88 43 91 100 88 43 91 55 28 7 29 45 44 17 18 101 98 89 92 101 98 89 92 102 99 90 93 102 99 90 93 103 100 91 94 103 100 91 94 54 55 29 30 46 45 18 19 104 101 92 95 104 101 92 95 105 102 93 96 105 102 93 96 106 103 94 97 106 103 94 97 53 54 30 31 8 46 19 0 62 104 95 32 62 104 95 32 63 105 96 33 63 105 96 33 64 106 97 34 64 106 97 34 20 53 31 4 47 15 16 44 107 83 86 98 107 83 86 98 108 84 87 99 108 84 87 99 109 85 88 100 109 85 88 100 58 27 28 55 48 47 44 45 110 107 98 101 110 107 98 101 111 108 99 102 111 108 99 102 112 109 100 103 112 109 100 103 57 58 55 54 49 48 45 46 113 110 101 104 113 110 101 104 114 111 102 105 114 111 102 105 115 112 103 106 115 112 103 106 56 57 54 53 9 49 46 8 65 113 104 62 65 113 104 62 66 114 105 63 66 114 105 63 67 115 106 64 67 115 106 64 21 56 53 20 50 14 15 47 116 80 83 107 116 80 83 107 117 81 84 108 117 81 84 108 118 82 85 109 118 82 85 109 61 26 27 58 51 50 47 48 119 116 107 110 119 116 107 110 120 117 108 111 120 117 108 111 121 118 109 112 121 118 109 112 60 61 58 57 52 51 48 49 122 119 110 113 122 119 110 113 123 120 111 114 123 120 111 114 124 121 112 115 124 121 112 115 59 60 57 56 10 52 49 9 68 122 113 65 68 122 113 65 69 123 114 66 69 123 114 66 70 124 115 67 70 124 115 67 22 59 56 21 13 2 14 50 77 38 80 116 77 38 80 116 78 39 81 117 78 39 81 117 79 40 82 118 79 40 82 118 25 6 26 61 12 13 50 51 74 77 116 119 74 77 116 119 75 78 117 120 75 78 117 120 76 79 118 121 76 79 118 121 24 25 61 60 11 12 51 52 71 74 119 122 71 74 119 122 72 75 120 123 72 75 120 123 73 76 121 124 73 76 121 124 23 24 60 59 1 11 52 10 35 71 122 68 35 71 122 68 36 72 123 69 36 72 123 69 37 73 124 70 37 73 124 70 5 23 59 22 </DataArray>
<DataArray type="Int32" Name="offsets" format="ascii">
8 16 24 32 40 48 56 64 72 80 88 96 104 112 120 128 136 144 152 160 168 176 184 192 200 208 216 224 232 240 248 256 264 272 280 288 296 304 312 320 328 336 344 352 360 368 376 384 392 400 408 416 424 432 440 448 456 464 472 480 488 496 504 512 </DataArray>
<DataArray type="UInt8" Name="types" format="ascii">
12 12 12 12 12 12 12 12 12 12 12 12 12 12 12 12 12 12 12 12 12 12 12 12 12 12 12 12 12 12 12 12 12 12 12 12 12 12 12 12 12 12 12 12 12 12 12 12 12 12 12 12 12 12 12 12 12 12 12 12 12 12 12 12 </DataArray>
</Cells>
<CellData Scalars="scalars">
<DataArray type="Float32" Name="number_density" format="ascii">
7.8912e+12 8.384e+12 7.5904e+12 6.5792e+12 8.1024e+12 9.6768e+12 8.6016e+12 6.9888e+12 7.3152e+12 9.2608e+12 8.9792e+12 7.1296e+12 7.1104e+12 7.424e+12 7.7376e+12 7.1552e+12 9.2096e+12 1.14688e+13 1.00928e+13 7.52e+12 1.00032e+13 1.95904e+13 1.88864e+13 9.1328e+12 9.12e+12 1.76576e+13 1.81696e+13 9.664e+12 7.4688e+12 9.7408e+12 9.9904e+12 8.1728e+12 8.7936e+12 1.10464e+13 1.03936e+13 8.1792e+12 9.9648e+12 1.99808e+13 1.9328e+13 1.06944e+13 1.02016e+13 1.82784e+13 1.94496e+13 1.1104e+13 7.5264e+12 9.7856e+12 1.02336e+13 8.3136e+12 7.4304e+12 8.0896e+12 8.6144e+12 7.7568e+12 8.0832e+12 9.504e+12 9.9136e+12 8.1792e+12 7.7504e+12 1.01376e+13 1.04384e+13 8.4544e+12 7.0208e+12 7.9424e+12 7.8656e+12 7.7312e+12 </DataArray>
<DataArray type="Float32" Name="potential" format="ascii">
0 0 0 0 0 0 0 0 0 0 0 0 0 0 0 0 0 0 0 0 0 0 0 0 0 0 0 0 0 0 0 0 0 0 0 0 0 0 0 0 0 0 0 0 0 0 0 0 0 0 0 0 0 0 0 0 0 0 0 0 0 0 0 0 </DataArray>
<DataArray type="Float32" Name="temperature" format="ascii">
685.18 743.568 685.894 627.882 744.019 920.245 882.318 720.524 667.455 916.211 903.344 727.659 612.709 731.722 722.496 640.307 762.023 935.919 903.049 690.894 889.964 1361.84 1280.51 868.078 865.202 1209.96 1279.48 925.363 708.128 872.184 942.956 715.698 706.898 926.677 951.281 739.018 901.774 1317.8 1354.64 923.461 841.697 1276.98 1330.44 936.186 712.441 897.479 919.89 735.307 631.853 684.037 692.519 625.447 685.339 871.302 900.96 734.621 729.73 859.655 886.331 737.851 632.053 710.333 735.454 614.217 </DataArray>
<DataArray type="Float32" Name="velocity" format="ascii">
336.613 512.221 648.044 550.129 509.547 701.733 874.253 717.657 627.797 795.686 836.539 674.09 506.75 638.305 635.096 481.109 387.827 474.486 704.611 658.379 616.763 533.702 766.337 828.779 785.869 797.129 774.328 767.928 635.291 758.069 727.882 584.94 455.798 515.516 591.991 546.039 574.624 447.111 477.361 639.85 686.598 644.008 548.111 600.704 569.41 696.514 629.941 493.438 395.186 524.817 520.042 404.131 517.774 657.787 643.206 521.079 531.59 640.3 620.877 488.45 405.144 526.244 507.309 400.842 </DataArray>
<DataArray type="Float32" Name="E_field" format="ascii">
0 0 0 0 0 0 0 0 0 0 0 0 0 0 0 0 0 0 0 0 0 0 0 0 0 0 0 0 0 0 0 0 0 0 0 0 0 0 0 0 0 0 0 0 0 0 0 0 0 0 0 0 0 0 0 0 0 0 0 0 0 0 0 0 </DataArray>
</CellData>
<PointData Scalars="number_density">
<DataArray type="Float32" Name="number_density" format="ascii">
7.1104e+12 7.0208e+12 7.4304e+12 7.8912e+12 7.1552e+12 7.7312e+12 7.7568e+12 6.5792e+12 7.2896e+12 7.4976e+12 7.2736e+12 7.3856e+12 7.9168e+12 7.7568e+12 8.112e+12 9.0016e+12 8.5504e+12 7.9968e+12 7.7088e+12 7.2128e+12 7.664e+12 8.2432e+12 8.0224e+12 8.0928e+12 8.3168e+12 7.968e+12 7.968e+12 7.8496e+12 7.0496e+12 6.784e+12 7.0592e+12 7.1424e+12 7.2672e+12 7.5808e+12 7.4464e+12 7.4816e+12 7.904e+12 7.7984e+12 7.76e+12 8.352e+12 8.1856e+12 8.1376e+12 7.9872e+12 7.0848e+12 8.8016e+12 8.6352e+12 7.7536e+12 9.4928e+12 9.8224e+12 8.5792e+12 8.568e+12 9e+12 8.1248e+12 8.0304e+12 8.2288e+12 7.5552e+12 9.3136e+12 1.01488e+13 8.8816e+12 8.9008e+12 9.608e+12 8.7024e+12 7.936e+12 8.7232e+12 8.264e+12 8.6304e+12 9.9376e+12 9.1776e+12 8.0688e+12 8.9568e+12 8.536e+12 8.2128e+12 9.096e+12 8.6224e+12 8.8688e+12 9.9984e+12 9.2464e+12 8.2768e+12 9.0304e+12 8.616e+12 8.84e+12 9.536e+12 8.736e+12 1.01296e+13 1.07504e+13 9.0464e+12 9.2384e+12 9.384e+12 7.9456e+12 8.5136e+12 8.5632e+12 7.44e+12 8.5888e+12 9.1296e+12 7.9248e+12 7.7776e+12 8.3504e+12 7.7504e+12 1.05408e+13 1.17864e+13 9.424e+12 1.13408e+13 1.38528e+13 1.0944e+13 9.3872e+12 1.112e+13 9.6248e+12 1.25072e+13 1.50984e+13 1.17784e+13 1.43496e+13 1.89176e+13 1.45536e+13 1.12224e+13 1.41632e+13 1.18872e+13 1.03616e+13 1.21088e+13 1.03824e+13 1.17376e+13 1.46288e+13 1.21952e+13 9.8304e+12 1.17664e+13 1.04488e+13 </DataArray>
<DataArray type="Float32" Name="potential" format="ascii">
0 0 0 0 0 0 0 0 0 0 0 0 0 0 0 0 0 0 0 0 0 0 0 0 0 0 0 0 0 0 0 0 0 0 0 0 0 0 0 0 0 0 0 0 0 0 0 0 0 0 0 0 0 0 0 0 0 0 0 0 0 0 0 0 0 0 0 0 0 0 0 0 0 0 0 0 0 0 0 0 0 0 0 0 0 0 0 0 0 0 0 0 0 0 0 0 0 0 0 0 0 0 0 0 0 0 0 0 0 0 0 0 0 0 0 0 0 0 0 0 0 0 0 0 0 </DataArray>
<DataArray type="Float32" Name="temperature" format="ascii">
612.709 632.053 631.853 685.18 640.307 614.217 625.447 627.882 660.418 710.285 672.247 680.892 707.535 658.596 669.375 734.461 723.602 714.599 705.737 640.082 678.002 725.503 674.762 676.034 736.236 680.034 682.233 714.956 659.388 674.203 724.092 683.983 672.216 727.109 681.402 671.193 722.894 674.836 657.945 688.278 658.983 714.374 714.731 656.888 770.296 791.66 713.374 815.165 874.659 781.867 731.466 789.635 728.98 752.257 810.406 726.845 828.139 913.272 805.363 755.89 833.03 755.637 731.186 817.34 755.364 797.558 908.127 828.463 738.077 815.789 751.217 732.943 797.943 743.463 786.507 879.562 814.941 718.133 787.205 738.387 737.366 813.629 752.066 832.879 929.232 821.061 781.672 817.107 726.93 773.253 808.006 729.154 811.983 905.53 808.461 732.024 818.444 748.452 880.345 964.168 832.394 946.862 1094.24 948.41 822.947 947.294 857.163 975.361 1128.96 963.868 1083.15 1301.46 1112.27 923.01 1091.17 973.165 840.709 962.402 865.244 935.534 1099.76 975.562 832.547 952.071 861.96 </DataArray>
<DataArray type="Float32" Name="velocity" format="ascii">
506.75 405.144 395.186 336.613 481.109 400.842 404.131 550.129 567.674 582.735 476.413 461.184 508.91 449.396 418.992 388.896 352.742 412.492 558.931 565.047 529.687 505.433 436.527 437.2 477.469 456.771 460.913 576.789 597.436 630.847 674.838 569.875 565.223 614.061 547.622 463.523 495.289 449.458 456.487 500.813 454.285 414.234 556.918 596.069 440.816 610.961 630.681 445.26 595.116 638.461 466.046 542.747 528.558 610.176 710.957 676.322 551.813 613.014 618.23 467.938 507.099 502.975 621.222 649.737 588.717 629.776 623.289 557.405 530.26 540.817 485.146 512.171 538.019 486.503 551.913 567.699 521.205 507.382 540.406 500.182 456.913 489.965 490.033 386.42 454.515 577.306 400.094 540.168 627.484 488.612 636.737 687.581 622.966 719.038 739.282 627.456 683.495 635.968 460.664 570.847 695.865 614.035 628.685 720.577 668.801 677.529 649.662 375.229 326.507 568.081 491.892 205.728 505.973 637.6 552.091 546.293 475.928 451.511 496.629 519.018 408.928 469.141 553.281 521.648 488.536 </DataArray>
<DataArray type="Float32" Name="E_field" format="ascii">
0 0 0 0 0 0 0 0 0 0 0 0 0 0 0 0 0 0 0 0 0 0 0 0 0 0 0 0 0 0 0 0 0 0 0 0 0 0 0 0 0 0 0 0 0 0 0 0 0 0 0 0 0 0 0 0 0 0 0 0 0 0 0 0 0 0 0 0 0 0 0 0 0 0 0 0 0 0 0 0 0 0 0 0 0 0 0 0 0 0 0 0 0 0 0 0 0 0 0 0 0 0 0 0 0 0 0 0 0 0 0 0 0 0 0 0 0 0 0 0 0 0 0 0 0 </DataArray>
</PointData>
</Piece>
</UnstructuredGrid>
</VTKFile>
