<VTKFile type="UnstructuredGrid" version="0.1" byte_order="LittleEndian">
<UnstructuredGrid>
<Piece NumberOfPoints="125" NumberOfCells="64">
<Points>
<DataArray type="Float32" NumberOfComponents="3" format="ascii">
-0.5 -0.5 -0.5 0.5 -0.5 -0.5 0.5 0.5 -0.5 -0.5 0.5 -0.5 -0.5 -0.5 0.5 0.5 -0.5 0.5 0.5 0.5 0.5 -0.5 0.5 0.5 -0.25 -0.5 -0.5 0 -0.5 -0.5 0.25 -0.5 -0.5 0.5 -0.25 -0.5 0.5 0 -0.5 0.5 0.25 -0.5 0.25 0.5 -0.5 0 0.5 -0.5 -0.25 0.5 -0.5 -0.5 0.25 -0.5 -0.5 0 -0.5 -0.5 -0.25 -0.5 -0.25 -0.5 0.5 0 -0.5 0.5 0.25 -0.5 0.5 0.5 -0.25 0.5 0.5 0 0.5 0.5 0.25 0.5 0.25 0.5 0.5 0 0.5 0.5 -0.25 0.5 0.5 -0.5 0.25 0.5 -0.5 0 0.5 -0.5 -0.25 0.5 -0.5 -0.5 -0.25 -0.5 -0.5 0 -0.5 -0.5 0.25 0.5 -0.5 -0.25 0.5 -0.5 0 0.5 -0.5 0.25 0.5 0.5 -0.25 0.5 0.5 0 0.5 0.5 0.25 -0.5 0.5 -0.25 -0.5 0.5 0 -0.5 0.5 0.25 -0.25 0.25 -0.5 -0.25 0 -0.5 -0.25 -0.25 -0.5 0 0.25 -0.5 0 0 -0.5 0 -0.25 -0.5 0.25 0.25 -0.5 0.25 0 -0.5 0.25 -0.25 -0.5 -0.25 -0.25 0.5 -0.25 0 0.5 -0.25 0.25 0.5 0 -0.25 0.5 0 0 0.5 0 0.25 0.5 0.25 -0.25 0.5 0.25 0 0.5 0.25 0.25 0.5 -0.25 -0.5 -0.25 -0.25 -0.5 0 -0.25 -0.5 0.25 0 -0.5 -0.25 0 -0.5 0 0 -0.5 0.25 0.25 -0.5 -0.25 0.25 -0.5 0 0.25 -0.5 0.25 0.5 -0.25 -0.25 0.5 -0.25 0 0.5 -0.25 0.25 0.5 0 -0.25 0.5 0 0 0.5 0 0.25 0.5 0.25 -0.25 0.5 0.25 0 0.5 0.25 0.25 0.25 0.5 -0.25 0.25 0.5 0 0.25 0.5 0.25 0 0.5 -0.25 0 0.5 0 0 0.5 0.25 -0.25 0.5 -0.25 -0.25 0.5 0 -0.25 0.5 0.25 -0.5 0.25 -0.25 -0.5 0.25 0 -0.5 0.25 0.25 -0.5 0 -0.25 -0.5 0 0 -0.5 0 0.25 -0.5 -0.25 -0.25 -0.5 -0.25 0 -0.5 -0.25 0.25 -0.25 0.25 -0.25 -0.25 0.25 0 -0.25 0.25 0.25 -0.25 0 -0.25 -0.25 0 0 -0.25 0 0.25 -0.25 -0.25 -0.25 -0.25 -0.25 0 -0.25 -0.25 0.25 0 0.25 -0.25 0 0.25 0 0 0.25 0.25 0 0 -0.25 0 0 0 0 0 0.25 0 -0.25 -0.25 0 -0.25 0 0 -0.25 0.25 0.25 0.25 -0.25 0.25 0.25 0 0.25 0.25 0.25 0.25 0 -0.25 0.25 0 0 0.25 0 0.25 0.25 -0.25 -0.25 0.25 -0.25 0 0.25 -0.25 0.25 </DataArray>
</Points>
<Cells>
<DataArray type="Int32" Name="connectivity" format="ascii">
44 16 3 17 98 86 41 89 98 86 41 89 99 87 42 90 99 87 42 90 100 88 43 91 100 88 43 91 55 28 7 29 45 44 17 18 101 98 89 92 101 98 89 92 102 99 90 93 102 99 90 93 103 100 91 94 103 100 91 94 54 55 29 30 46 45 18 19 104 101 92 95 104 101 92 95 105 102 93 96 105 102 93 96 106 103 94 97 106 103 94 97 53 54 30 31 8 46 19 0 62 104 95 32 62 104 95 32 63 105 96 33 63 105 96 33 64 106 97 34 64 106 97 34 20 53 31 4 47 15 16 44 107 83 86 98 107 83 86 98 108 84 87 99 108 84 87 99 109 85 88 100 109 85 88 100 58 27 28 55 48 47 44 45 110 107 98 101 110 107 98 101 111 108 99 102 111 108 99 102 112 109 100 103 112 109 100 103 57 58 55 54 49 48 45 46 113 110 101 104 113 110 101 104 114 111 102 105 114 111 102 105 115 112 103 106 115 112 103 106 56 57 54 53 9 49 46 8 65 113 104 62 65 113 104 62 66 114 105 63 66 114 105 63 67 115 106 64 67 115 106 64 21 56 53 20 50 14 15 47 116 80 83 107 116 80 83 107 117 81 84 108 117 81 84 108 118 82 85 109 118 82 85 109 61 26 27 58 51 50 47 48 119 116 107 110 119 116 107 110 120 117 108 111 120 117 108 111 121 118 109 112 121 118 109 112 60 61 58 57 52 51 48 49 122 119 110 113 122 119 110 113 123 120 111 114 123 120 111 114 124 121 112 115 124 121 112 115 59 60 57 56 10 52 49 9 68 122 113 65 68 122 113 65 69 123 114 66 69 123 114 66 70 124 115 67 70 124 115 67 22 59 56 21 13 2 14 50 77 38 80 116 77 38 80 116 78 39 81 117 78 39 81 117 79 40 82 118 79 40 82 118 25 6 26 61 12 13 50 51 74 77 116 119 74 77 116 119 75 78 117 120 75 78 117 120 76 79 118 121 76 79 118 121 24 25 61 60 11 12 51 52 71 74 119 122 71 74 119 122 72 75 120 123 72 75 120 123 73 76 121 124 73 76 121 124 23 24 60 59 1 11 52 10 35 71 122 68 35 71 122 68 36 72 123 69 36 72 123 69 37 73 124 70 37 73 124 70 5 23 59 22 </DataArray>
<DataArray type="Int32" Name="offsets" format="ascii">
8 16 24 32 40 48 56 64 72 80 88 96 104 112 120 128 136 144 152 160 168 176 184 192 200 208 216 224 232 240 248 256 264 272 280 288 296 304 312 320 328 336 344 352 360 368 376 384 392 400 408 416 424 432 440 448 456 464 472 480 488 496 504 512 </DataArray>
<DataArray type="UInt8" Name="types" format="ascii">
12 12 12 12 12 12 12 12 12 12 12 12 12 12 12 12 12 12 12 12 12 12 12 12 12 12 12 12 12 12 12 12 12 12 12 12 12 12 12 12 12 12 12 12 12 12 12 12 12 12 12 12 12 12 12 12 12 12 12 12 12 12 12 12 </DataArray>
</Cells>
<CellData Scalars="scalars">
<DataArray type="Float32" Name="number_density" format="ascii">
1.0208e+13 9.792e+12 1.00288e+13 9.984e+12 9.9136e+12 1.008e+13 9.7792e+12 9.5424e+12 1.01952e+13 9.7728e+12 9.8624e+12 1.00224e+13 1.0368e+13 9.92e+12 9.9264e+12 1.03104e+13 9.568e+12 9.888e+12 1.01248e+13 1.01952e+13 1.0016e+13 9.92e+12 9.856e+12 9.8496e+12 9.8048e+12 1.05088e+13 1.01248e+13 1.00096e+13 1.00416e+13 1.02464e+13 9.8624e+12 9.4336e+12 9.8304e+12 1.0016e+13 1.01184e+13 1.00096e+13 1.00288e+13 1.01568e+13 9.9648e+12 1.01696e+13 1.04064e+13 1.0304e+13 1.00864e+13 1.0688e+13 9.8304e+12 1.0144e+13 1.00928e+13 9.9456e+12 9.9712e+12 1.0016e+13 1.00096e+13 1.0048e+13 1.01312e+13 9.4208e+12 9.6832e+12 1.01632e+13 9.952e+12 1.02976e+13 1.00736e+13 1.00288e+13 9.2928e+12 9.888e+12 9.792e+12 1.02848e+13 </DataArray>
<DataArray type="Float32" Name="potential" format="ascii">
0 0 0 0 0 0 0 0 0 0 0 0 0 0 0 0 0 0 0 0 0 0 0 0 0 0 0 0 0 0 0 0 0 0 0 0 0 0 0 0 0 0 0 0 0 0 0 0 0 0 0 0 0 0 0 0 0 0 0 0 0 0 0 0 </DataArray>
<DataArray type="Float32" Name="temperature" format="ascii">
692.027 704.648 703.068 690.379 697.339 693.082 704.422 682.209 687.11 714.718 678.374 713.959 677.067 679.951 703.217 700.253 675.557 706.156 685.256 684.868 716.451 713.908 704.851 685.007 687.106 702.58 696.807 711.589 725.436 688.343 704.096 688.119 695.113 738.988 701.988 698.58 695.229 707.624 718.34 692.285 715.059 704.793 710.501 704.61 691.073 708.794 695.86 679.758 674.82 681.853 681.229 690.807 691.034 713.6 684.262 711.27 705.735 702.244 724.335 706.87 699.096 705.127 711.87 700.186 </DataArray>
<DataArray type="Float32" Name="velocity" format="ascii">
74.5117 113.709 121.358 109.16 85.1809 133.074 171.218 121.133 117.573 147.99 159.596 142.381 120.341 118.793 120.649 106.598 76.9205 83.7213 139.153 138.291 109.703 90.5035 134.158 141.903 150.788 134.462 136.391 145.827 120.404 133.318 144.657 111.241 84.6988 88.7489 129.309 107.852 120.265 75.6163 84.147 124.13 123.249 111.309 118.166 109.285 99.3711 148.955 124.716 93.8557 86.4681 87.6574 93.9076 79.4928 98.8128 121.212 124.211 107.846 95.3412 109.402 111.722 94.6775 76.6991 93.2378 110.116 87.5541 </DataArray>
<DataArray type="Float32" Name="E_field" format="ascii">
0 0 0 0 0 0 0 0 0 0 0 0 0 0 0 0 0 0 0 0 0 0 0 0 0 0 0 0 0 0 0 0 0 0 0 0 0 0 0 0 0 0 0 0 0 0 0 0 0 0 0 0 0 0 0 0 0 0 0 0 0 0 0 0 </DataArray>
</CellData>
<PointData Scalars="number_density">
<DataArray type="Float32" Name="number_density" format="ascii">
1.0368e+13 9.2928e+12 9.9712e+12 1.0208e+13 1.03104e+13 1.02848e+13 1.0048e+13 9.984e+12 1.02048e+13 9.936e+12 9.5616e+12 9.6224e+12 1.00416e+13 1.00512e+13 9.9008e+12 9.6992e+12 9.888e+12 1.00608e+13 1.00544e+13 1.02816e+13 9.872e+12 9.6896e+12 1.01152e+13 1.01568e+13 1.0096e+13 1.01056e+13 1.00288e+13 1.01024e+13 1.00896e+13 9.7632e+12 9.7824e+12 1.01664e+13 1.0144e+13 9.9232e+12 1.01184e+13 9.5904e+12 9.84e+12 1.00384e+13 9.9936e+12 1.00128e+13 1.00288e+13 1e+13 9.9104e+12 1.00064e+13 9.9264e+12 9.9824e+12 1.01024e+13 9.8608e+12 1.0064e+13 1.00208e+13 9.9904e+12 1.01296e+13 9.8704e+12 9.944e+12 9.856e+12 9.8928e+12 1.00192e+13 1.01792e+13 1.0056e+13 1.02368e+13 1.02624e+13 1.00976e+13 1.0144e+13 9.9888e+12 9.8832e+12 1.00656e+13 1.00864e+13 9.8336e+12 9.7888e+12 9.9792e+12 1.00288e+13 9.8576e+12 1.00128e+13 1.00448e+13 9.9504e+12 9.8688e+12 9.9872e+12 9.8848e+12 9.7824e+12 9.976e+12 9.9584e+12 1.004e+13 1.00464e+13 9.8256e+12 1.00368e+13 1.0112e+13 9.864e+12 9.9584e+12 1.00832e+13 9.9984e+12 9.92e+12 9.8336e+12 9.9904e+12 9.8736e+12 9.8016e+12 1.0064e+13 9.8704e+12 1.00304e+13 9.9232e+12 9.9336e+12 9.92e+12 1.00264e+13 9.988e+12 9.8808e+12 1.01072e+13 1.0028e+13 9.944e+12 9.928e+12 1.00056e+13 1.0036e+13 1.01432e+13 1.01152e+13 1.00936e+13 1.01608e+13 1.01712e+13 1.00304e+13 9.9464e+12 9.9232e+12 1.00208e+13 1.00872e+13 9.9984e+12 1.01072e+13 1.00144e+13 1.00848e+13 1.0124e+13 </DataArray>
<DataArray type="Float32" Name="potential" format="ascii">
0 0 0 0 0 0 0 0 0 0 0 0 0 0 0 0 0 0 0 0 0 0 0 0 0 0 0 0 0 0 0 0 0 0 0 0 0 0 0 0 0 0 0 0 0 0 0 0 0 0 0 0 0 0 0 0 0 0 0 0 0 0 0 0 0 0 0 0 0 0 0 0 0 0 0 0 0 0 0 0 0 0 0 0 0 0 0 0 0 0 0 0 0 0 0 0 0 0 0 0 0 0 0 0 0 0 0 0 0 0 0 0 0 0 0 0 0 0 0 0 0 0 0 0 0 </DataArray>
<DataArray type="Float32" Name="temperature" format="ascii">
677.067 699.096 674.82 692.027 700.253 700.186 690.807 690.379 701.251 708.255 695.085 702.416 698.385 682.927 684.967 685.335 683.792 694.683 692.225 682.088 694.186 683.938 689.972 703.528 709.07 701.039 694.694 691.724 687.623 686.294 698.084 707.106 678.509 691.584 701.735 702.111 708.499 706.028 678.337 681.541 686.018 698.338 703.858 696.723 695.344 697.001 694.18 695.588 703.461 704.668 689.049 701.764 702.741 703.48 698.191 685.616 696.019 698.373 690.185 697.856 703.759 698.236 692.699 693.902 698.921 703.411 699.273 691.958 701.022 705.413 696.919 703.051 710.894 710.815 703.153 706.11 706.684 690.327 690.236 691.892 697.694 701.015 693.151 703.954 708.097 692.673 694.597 699.782 690.893 696.774 701.305 695.019 698.062 697.649 694.741 689.711 694.065 698.951 699.896 701.924 692.507 701.537 701.093 697.152 695.289 696.011 699.552 706.128 709.639 696.397 705.344 707.426 702.999 702.898 701.472 698.918 699.783 703.486 697.345 704.415 708.213 706.559 703.99 707.941 704.249 </DataArray>
<DataArray type="Float32" Name="velocity" format="ascii">
120.341 76.6991 86.4681 74.5117 106.598 87.5541 79.4928 109.16 119.02 106.981 85.7278 82.9449 95.4269 89.4275 84.7009 73.9676 74.0357 78.2512 99.5604 117.63 105.734 98.3889 83.9676 87.1974 96.6818 92.471 89.5312 118.526 121.691 114.492 128.467 123.176 113.704 118.106 109.221 83.7531 99.9817 98.6079 86.0487 88.8616 84.2796 91.1015 115.569 113.988 82.2747 111.925 123.933 86.1038 120.333 117.752 87.3429 101.306 92.7046 121.009 129.904 124.578 106.075 116.242 122.995 89.4164 97.6838 97.7944 118.222 122.743 115.052 119.004 126.55 109.517 99.338 112.569 95.8367 89.2313 100.152 93.6561 101.468 107.628 100.057 93.6987 99.3258 96.7175 84.0434 93.8674 95.4216 70.7456 94.1906 118.785 80.9309 105.619 121.487 93.7264 131.49 127.741 109.156 141.53 140.007 119.662 130.39 125.443 83.4254 109.359 127.009 106.777 114.078 128.919 122.675 123.758 123.087 68.2927 64.2828 110.405 94.1139 32.13 92.8837 115.261 105.218 105.387 83.6486 84.386 94.6684 93.1882 77.8048 88.3704 97.427 100.69 92.4208 </DataArray>
<DataArray type="Float32" Name="E_field" format="ascii">
0 0 0 0 0 0 0 0 0 0 0 0 0 0 0 0 0 0 0 0 0 0 0 0 0 0 0 0 0 0 0 0 0 0 0 0 0 0 0 0 0 0 0 0 0 0 0 0 0 0 0 0 0 0 0 0 0 0 0 0 0 0 0 0 0 0 0 0 0 0 0 0 0 0 0 0 0 0 0 0 0 0 0 0 0 0 0 0 0 0 0 0 0 0 0 0 0 0 0 0 0 0 0 0 0 0 0 0 0 0 0 0 0 0 0 0 0 0 0 0 0 0 0 0 0 </DataArray>
</PointData>
</Piece>
</UnstructuredGrid>
</VTKFile>
