<VTKFile type="UnstructuredGrid" version="0.1" byte_order="LittleEndian">
<UnstructuredGrid>
<Piece NumberOfPoints="125" NumberOfCells="64">
<Points>
<DataArray type="Float32" NumberOfComponents="3" format="ascii">
-0.5 -0.5 -0.5 0.5 -0.5 -0.5 0.5 0.5 -0.5 -0.5 0.5 -0.5 -0.5 -0.5 0.5 0.5 -0.5 0.5 0.5 0.5 0.5 -0.5 0.5 0.5 -0.25 -0.5 -0.5 0 -0.5 -0.5 0.25 -0.5 -0.5 0.5 -0.25 -0.5 0.5 0 -0.5 0.5 0.25 -0.5 0.25 0.5 -0.5 0 0.5 -0.5 -0.25 0.5 -0.5 -0.5 0.25 -0.5 -0.5 0 -0.5 -0.5 -0.25 -0.5 -0.25 -0.5 0.5 0 -0.5 0.5 0.25 -0.5 0.5 0.5 -0.25 0.5 0.5 0 0.5 0.5 0.25 0.5 0.25 0.5 0.5 0 0.5 0.5 -0.25 0.5 0.5 -0.5 0.25 0.5 -0.5 0 0.5 -0.5 -0.25 0.5 -0.5 -0.5 -0.25 -0.5 -0.5 0 -0.5 -0.5 0.25 0.5 -0.5 -0.25 0.5 -0.5 0 0.5 -0.5 0.25 0.5 0.5 -0.25 0.5 0.5 0 0.5 0.5 0.25 -0.5 0.5 -0.25 -0.5 0.5 0 -0.5 0.5 0.25 -0.25 0.25 -0.5 -0.25 0 -0.5 -0.25 -0.25 -0.5 0 0.25 -0.5 0 0 -0.5 0 -0.25 -0.5 0.25 0.25 -0.5 0.25 0 -0.5 0.25 -0.25 -0.5 -0.25 -0.25 0.5 -0.25 0 0.5 -0.25 0.25 0.5 0 -0.25 0.5 0 0 0.5 0 0.25 0.5 0.25 -0.25 0.5 0.25 0 0.5 0.25 0.25 0.5 -0.25 -0.5 -0.25 -0.25 -0.5 0 -0.25 -0.5 0.25 0 -0.5 -0.25 0 -0.5 0 0 -0.5 0.25 0.25 -0.5 -0.25 0.25 -0.5 0 0.25 -0.5 0.25 0.5 -0.25 -0.25 0.5 -0.25 0 0.5 -0.25 0.25 0.5 0 -0.25 0.5 0 0 0.5 0 0.25 0.5 0.25 -0.25 0.5 0.25 0 0.5 0.25 0.25 0.25 0.5 -0.25 0.25 0.5 0 0.25 0.5 0.25 0 0.5 -0.25 0 0.5 0 0 0.5 0.25 -0.25 0.5 -0.25 -0.25 0.5 0 -0.25 0.5 0.25 -0.5 0.25 -0.25 -0.5 0.25 0 -0.5 0.25 0.25 -0.5 0 -0.25 -0.5 0 0 -0.5 0 0.25 -0.5 -0.25 -0.25 -0.5 -0.25 0 -0.5 -0.25 0.25 -0.25 0.25 -0.25 -0.25 0.25 0 -0.25 0.25 0.25 -0.25 0 -0.25 -0.25 0 0 -0.25 0 0.25 -0.25 -0.25 -0.25 -0.25 -0.25 0 -0.25 -0.25 0.25 0 0.25 -0.25 0 0.25 0 0 0.25 0.25 0 0 -0.25 0 0 0 0 0 0.25 0 -0.25 -0.25 0 -0.25 0 0 -0.25 0.25 0.25 0.25 -0.25 0.25 0.25 0 0.25 0.25 0.25 0.25 0 -0.25 0.25 0 0 0.25 0 0.25 0.25 -0.25 -0.25 0.25 -0.25 0 0.25 -0.25 0.25 </DataArray>
</Points>
<Cells>
<DataArray type="Int32" Name="connectivity" format="ascii">
44 16 3 17 98 86 41 89 98 86 41 89 99 87 42 90 99 87 42 90 100 88 43 91 100 88 43 91 55 28 7 29 45 44 17 18 101 98 89 92 101 98 89 92 102 99 90 93 102 99 90 93 103 100 91 94 103 100 91 94 54 55 29 30 46 45 18 19 104 101 92 95 104 101 92 95 105 102 93 96 105 102 93 96 106 103 94 97 106 103 94 97 53 54 30 31 8 46 19 0 62 104 95 32 62 104 95 32 63 105 96 33 63 105 96 33 64 106 97 34 64 106 97 34 20 53 31 4 47 15 16 44 107 83 86 98 107 83 86 98 108 84 87 99 108 84 87 99 109 85 88 100 109 85 88 100 58 27 28 55 48 47 44 45 110 107 98 101 110 107 98 101 111 108 99 102 111 108 99 102 112 109 100 103 112 109 100 103 57 58 55 54 49 48 45 46 113 110 101 104 113 110 101 104 114 111 102 105 114 111 102 105 115 112 103 106 115 112 103 106 56 57 54 53 9 49 46 8 65 113 104 62 65 113 104 62 66 114 105 63 66 114 105 63 67 115 106 64 67 115 106 64 21 56 53 20 50 14 15 47 116 80 83 107 116 80 83 107 117 81 84 108 117 81 84 108 118 82 85 109 118 82 85 109 61 26 27 58 51 50 47 48 119 116 107 110 119 116 107 110 120 117 108 111 120 117 108 111 121 118 109 112 121 118 109 112 60 61 58 57 52 51 48 49 122 119 110 113 122 119 110 113 123 120 111 114 123 120 111 114 124 121 112 115 124 121 112 115 59 60 57 56 10 52 49 9 68 122 113 65 68 122 113 65 69 123 114 66 69 123 114 66 70 124 115 67 70 124 115 67 22 59 56 21 13 2 14 50 77 38 80 116 77 38 80 116 78 39 81 117 78 39 81 117 79 40 82 118 79 40 82 118 25 6 26 61 12 13 50 51 74 77 116 119 74 77 116 119 75 78 117 120 75 78 117 120 76 79 118 121 76 79 118 121 24 25 61 60 11 12 51 52 71 74 119 122 71 74 119 122 72 75 120 123 72 75 120 123 73 76 121 124 73 76 121 124 23 24 60 59 1 11 52 10 35 71 122 68 35 71 122 68 36 72 123 69 36 72 123 69 37 73 124 70 37 73 124 70 5 23 59 22 </DataArray>
<DataArray type="Int32" Name="offsets" format="ascii">
8 16 24 32 40 48 56 64 72 80 88 96 104 112 120 128 136 144 152 160 168 176 184 192 200 208 216 224 232 240 248 256 264 272 280 288 296 304 312 320 328 336 344 352 360 368 376 384 392 400 408 416 424 432 440 448 456 464 472 480 488 496 504 512 </DataArray>
<DataArray type="UInt8" Name="types" format="ascii">
12 12 12 12 12 12 12 12 12 12 12 12 12 12 12 12 12 12 12 12 12 12 12 12 12 12 12 12 12 12 12 12 12 12 12 12 12 12 12 12 12 12 12 12 12 12 12 12 12 12 12 12 12 12 12 12 12 12 12 12 12 12 12 12 </DataArray>
</Cells>
<CellData Scalars="scalars">
<DataArray type="Float32" Name="number_density" format="ascii">
1.02016e+13 9.888e+12 1.00736e+13 1.00672e+13 9.9072e+12 1.00928e+13 9.6832e+12 9.5808e+12 1.0304e+13 9.7472e+12 9.8624e+12 1.00608e+13 1.03424e+13 9.8816e+12 1.00672e+13 1.03488e+13 9.5872e+12 9.8944e+12 1.01568e+13 1.0176e+13 1.00928e+13 9.9136e+12 9.792e+12 9.824e+12 9.8752e+12 1.0336e+13 1.00352e+13 9.9456e+12 1.00864e+13 1.02592e+13 9.7792e+12 9.5488e+12 9.7984e+12 9.9136e+12 1.0016e+13 1.00032e+13 1.00288e+13 1.01184e+13 9.8304e+12 1.01632e+13 1.03936e+13 1.0208e+13 9.9136e+12 1.06112e+13 9.9072e+12 1.00672e+13 1.0208e+13 9.9072e+12 1.00032e+13 1.00736e+13 1.00416e+13 1.00864e+13 1.01952e+13 9.4272e+12 9.7152e+12 1.02336e+13 9.9904e+12 1.02656e+13 1.0112e+13 1.0048e+13 9.3248e+12 9.9136e+12 9.8432e+12 1.02272e+13 </DataArray>
<DataArray type="Float32" Name="potential" format="ascii">
0 0 0 0 0 0 0 0 0 0 0 0 0 0 0 0 0 0 0 0 0 0 0 0 0 0 0 0 0 0 0 0 0 0 0 0 0 0 0 0 0 0 0 0 0 0 0 0 0 0 0 0 0 0 0 0 0 0 0 0 0 0 0 0 </DataArray>
<DataArray type="Float32" Name="temperature" format="ascii">
693.708 707.694 703.419 691.118 697.636 696.058 697.766 685.521 692.496 711.052 682.261 712.164 672.245 681.886 702.454 705.199 684.594 702.061 689.652 686.689 708.45 709.895 689.334 686.227 687.835 692.384 692.327 702.675 734.81 693.977 700.376 687.069 694.33 733.491 698.203 695.211 691.975 707.264 703.415 688.604 710.005 702.645 703.025 708.724 692.452 703.051 695.309 675.131 673.527 681.85 680.867 699.328 698.822 709.659 684.48 712.098 697.552 702.549 717.223 705.841 707.516 703.416 713.133 705.05 </DataArray>
<DataArray type="Float32" Name="velocity" format="ascii">
55.3501 81.3918 85.0939 79.314 54.2643 93.7072 118.958 80.3876 79.9298 98.7261 109.617 102.088 86.5641 76.5062 86.1683 82.113 53.1787 51.9263 100.98 100.839 73.1984 60.035 98.0608 96.8974 106.622 88.7994 94.4312 101.095 81.1891 87.7926 99.5223 81.1715 53.9896 57.2855 94.435 71.232 91.1239 48.6945 59.4987 87.5115 83.145 78.058 90.5861 72.1721 62.3159 108.295 88.0213 62.7778 64.2271 56.3036 65.1849 56.7019 67.9872 85.7885 85.4185 77.546 65.2443 65.5715 76.2454 67.697 53.5224 63.9542 74.3825 65.1963 </DataArray>
<DataArray type="Float32" Name="E_field" format="ascii">
0 0 0 0 0 0 0 0 0 0 0 0 0 0 0 0 0 0 0 0 0 0 0 0 0 0 0 0 0 0 0 0 0 0 0 0 0 0 0 0 0 0 0 0 0 0 0 0 0 0 0 0 0 0 0 0 0 0 0 0 0 0 0 0 </DataArray>
</CellData>
<PointData Scalars="number_density">
<DataArray type="Float32" Name="number_density" format="ascii">
1.03424e+13 9.3248e+12 1.00032e+13 1.02016e+13 1.03488e+13 1.02272e+13 1.00864e+13 1.00672e+13 1.02144e+13 9.9968e+12 9.616e+12 9.6576e+12 1.00928e+13 1.00992e+13 9.9008e+12 9.6928e+12 9.8944e+12 1.00544e+13 1.01056e+13 1.03232e+13 9.9488e+12 9.728e+12 1.00672e+13 1.01376e+13 1.01408e+13 1.016e+13 1.00448e+13 1.00896e+13 1.01216e+13 9.824e+12 9.8208e+12 1.02048e+13 1.0112e+13 9.9744e+12 1.0208e+13 9.6192e+12 9.8784e+12 1.00352e+13 1.00384e+13 1.00576e+13 1.0064e+13 1.00448e+13 9.9808e+12 1.00704e+13 9.9472e+12 1.00448e+13 1.0152e+13 9.8768e+12 1.00976e+13 1.00656e+13 1.00064e+13 1.0152e+13 9.904e+12 9.976e+12 9.8528e+12 9.912e+12 1.00032e+13 1.0136e+13 1.00416e+13 1.01984e+13 1.0264e+13 1.01216e+13 1.01424e+13 9.9968e+12 9.936e+12 1.008e+13 1.00784e+13 9.8608e+12 9.8032e+12 1.0008e+13 1.00464e+13 9.8736e+12 1.00336e+13 1.00576e+13 9.9696e+12 9.88e+12 1.00272e+13 9.9248e+12 9.8144e+12 1.00192e+13 9.9472e+12 1.00112e+13 1.00368e+13 9.7984e+12 9.9952e+12 1.0088e+13 9.8928e+12 1.00032e+13 1.01184e+13 1.00224e+13 9.9344e+12 9.8512e+12 1.00128e+13 9.8464e+12 9.7968e+12 1.00688e+13 9.8896e+12 1.00848e+13 9.9472e+12 9.9368e+12 9.9192e+12 1.00336e+13 9.9328e+12 9.848e+12 1.0104e+13 9.996e+12 9.956e+12 9.9184e+12 9.9544e+12 9.9952e+12 1.01208e+13 1.00184e+13 1.00144e+13 1.01416e+13 1.01008e+13 9.9936e+12 9.9448e+12 9.892e+12 1.00112e+13 1.00784e+13 9.9488e+12 1.00784e+13 1.00088e+13 1.00664e+13 1.01088e+13 </DataArray>
<DataArray type="Float32" Name="potential" format="ascii">
0 0 0 0 0 0 0 0 0 0 0 0 0 0 0 0 0 0 0 0 0 0 0 0 0 0 0 0 0 0 0 0 0 0 0 0 0 0 0 0 0 0 0 0 0 0 0 0 0 0 0 0 0 0 0 0 0 0 0 0 0 0 0 0 0 0 0 0 0 0 0 0 0 0 0 0 0 0 0 0 0 0 0 0 0 0 0 0 0 0 0 0 0 0 0 0 0 0 0 0 0 0 0 0 0 0 0 0 0 0 0 0 0 0 0 0 0 0 0 0 0 0 0 0 0 </DataArray>
<DataArray type="Float32" Name="temperature" format="ascii">
672.245 707.516 673.527 693.708 705.199 705.05 699.328 691.118 703.528 713.631 699.984 702.534 698.187 686.174 683.928 689.462 689.151 695.672 695.066 682.37 696.134 681.1 690.091 705.446 708.97 705.713 697.269 690.95 688.903 688.319 698.842 708.681 677.065 692.17 703.826 705.466 708.274 709.092 677.688 681.359 690.097 700.701 705.556 697.268 696.097 696.604 696.846 694.837 699.566 706.276 689.663 699.588 701.881 701.777 696.647 687.389 693.4 696.558 689.183 698.687 703.817 698.81 695.729 694.673 698.775 706.073 698.178 689.472 701.609 703.727 697.156 702.758 709.08 710.312 702.145 703.478 704.911 690.965 689.214 694.193 695.799 698.603 693.402 703.619 705.852 692.439 697.014 700.707 692.719 698.774 701.234 694.456 699.31 696.784 694.428 689.42 694.413 700.519 700.012 699.485 691.216 699.476 696.385 693.534 695.835 694.59 698.066 704.008 704.164 692.167 701.307 700.036 696.791 702.145 697.887 695.58 698.865 699.904 695.276 702.559 703.783 702.926 702.398 705.044 702.93 </DataArray>
<DataArray type="Float32" Name="velocity" format="ascii">
86.5641 53.5224 64.2271 55.3501 82.113 65.1963 56.7019 79.314 82.7845 69.9032 55.5505 56.4789 65.702 63.8014 58.622 48.0339 53.3228 53.0177 65.4344 82.2824 77.8627 68.4758 55.9957 61.3318 69.4703 65.9646 60.8466 82.5953 88.2514 79.62 88.1423 91.0825 75.8634 80.5154 79.5982 58.2785 67.4396 69.483 59.1841 59.1752 58.861 66.0828 82.5323 81.0165 56.17 75.9839 86.4287 59.097 85.5387 79.7837 60.1253 70.1004 60.5814 86.9652 89.1061 86.5823 72.4337 79.1409 86.2954 60.3887 68.0418 68.8984 78.9087 83.202 82.4556 79.6243 88.206 75.992 68.2005 79.8281 65.9851 58.8278 65.3808 64.4256 68.038 72.3385 67.8491 64.7607 68.2267 66.9625 56.1924 63.9402 66.1146 45.0876 66.9797 85.1009 55.9419 73.7088 86.1995 63.8608 92.6881 88.6986 72.2328 97.7815 95.4977 79.9034 87.8908 88.6418 55.5106 76.0695 88.4581 71.5475 78.0728 88.4505 82.5135 82.9203 86.4879 44.55 44.8685 79.121 66.5096 22.823 64.1336 77.9732 73.2825 73.1207 55.873 57.2518 66.2586 62.9355 52.9971 60.82 64.9208 70.5492 64.1732 </DataArray>
<DataArray type="Float32" Name="E_field" format="ascii">
0 0 0 0 0 0 0 0 0 0 0 0 0 0 0 0 0 0 0 0 0 0 0 0 0 0 0 0 0 0 0 0 0 0 0 0 0 0 0 0 0 0 0 0 0 0 0 0 0 0 0 0 0 0 0 0 0 0 0 0 0 0 0 0 0 0 0 0 0 0 0 0 0 0 0 0 0 0 0 0 0 0 0 0 0 0 0 0 0 0 0 0 0 0 0 0 0 0 0 0 0 0 0 0 0 0 0 0 0 0 0 0 0 0 0 0 0 0 0 0 0 0 0 0 0 </DataArray>
</PointData>
</Piece>
</UnstructuredGrid>
</VTKFile>
