<VTKFile type="UnstructuredGrid" version="0.1" byte_order="LittleEndian">
<UnstructuredGrid>
<Piece NumberOfPoints="343" NumberOfCells="216">
<Points>
<DataArray type="Float32" NumberOfComponents="3" format="ascii">
-0.05 -0.05 -0.05 0.05 -0.05 -0.05 0.05 0.05 -0.05 -0.05 0.05 -0.05 -0.05 -0.05 0.05 0.05 -0.05 0.05 0.05 0.05 0.05 -0.05 0.05 0.05 -0.0333333 -0.05 -0.05 -0.0166667 -0.05 -0.05 0 -0.05 -0.05 0.0166667 -0.05 -0.05 0.0333333 -0.05 -0.05 0.05 -0.0333333 -0.05 0.05 -0.0166667 -0.05 0.05 0 -0.05 0.05 0.0166667 -0.05 0.05 0.0333333 -0.05 0.0333333 0.05 -0.05 0.0166667 0.05 -0.05 0 0.05 -0.05 -0.0166667 0.05 -0.05 -0.0333333 0.05 -0.05 -0.05 0.0333333 -0.05 -0.05 0.0166667 -0.05 -0.05 0 -0.05 -0.05 -0.0166667 -0.05 -0.05 -0.0333333 -0.05 -0.0333333 -0.05 0.05 -0.0166667 -0.05 0.05 0 -0.05 0.05 0.0166667 -0.05 0.05 0.0333333 -0.05 0.05 0.05 -0.0333333 0.05 0.05 -0.0166667 0.05 0.05 0 0.05 0.05 0.0166667 0.05 0.05 0.0333333 0.05 0.0333333 0.05 0.05 0.0166667 0.05 0.05 0 0.05 0.05 -0.0166667 0.05 0.05 -0.0333333 0.05 0.05 -0.05 0.0333333 0.05 -0.05 0.0166667 0.05 -0.05 0 0.05 -0.05 -0.0166667 0.05 -0.05 -0.0333333 0.05 -0.05 -0.05 -0.0333333 -0.05 -0.05 -0.0166667 -0.05 -0.05 0 -0.05 -0.05 0.0166667 -0.05 -0.05 0.0333333 0.05 -0.05 -0.0333333 0.05 -0.05 -0.0166667 0.05 -0.05 0 0.05 -0.05 0.0166667 0.05 -0.05 0.0333333 0.05 0.05 -0.0333333 0.05 0.05 -0.0166667 0.05 0.05 0 0.05 0.05 0.0166667 0.05 0.05 0.0333333 -0.05 0.05 -0.0333333 -0.05 0.05 -0.0166667 -0.05 0.05 0 -0.05 0.05 0.0166667 -0.05 0.05 0.0333333 -0.0333333 0.0333333 -0.05 -0.0333333 0.0166667 -0.05 -0.0333333 -3.55271e-18 -0.05 -0.0333333 -0.0166667 -0.05 -0.0333333 -0.0333333 -0.05 -0.0166667 0.0333333 -0.05 -0.0166667 0.0166667 -0.05 -0.0166667 -7.10543e-18 -0.05 -0.0166667 -0.0166667 -0.05 -0.0166667 -0.0333333 -0.05 1.77636e-18 0.0333333 -0.05 5.32907e-18 0.0166667 -0.05 3.55271e-18 -1.77636e-18 -0.05 7.10543e-18 -0.0166667 -0.05 3.55271e-18 -0.0333333 -0.05 0.0166667 0.0333333 -0.05 0.0166667 0.0166667 -0.05 0.0166667 -7.10543e-18 -0.05 0.0166667 -0.0166667 -0.05 0.0166667 -0.0333333 -0.05 0.0333333 0.0333333 -0.05 0.0333333 0.0166667 -0.05 0.0333333 -1.77636e-18 -0.05 0.0333333 -0.0166667 -0.05 0.0333333 -0.0333333 -0.05 -0.0333333 -0.0333333 0.05 -0.0333333 -0.0166667 0.05 -0.0333333 0 0.05 -0.0333333 0.0166667 0.05 -0.0333333 0.0333333 0.05 -0.0166667 -0.0333333 0.05 -0.0166667 -0.0166667 0.05 -0.0166667 0 0.05 -0.0166667 0.0166667 0.05 -0.0166667 0.0333333 0.05 0 -0.0333333 0.05 0 -0.0166667 0.05 0 0 0.05 0 0.0166667 0.05 0 0.0333333 0.05 0.0166667 -0.0333333 0.05 0.0166667 -0.0166667 0.05 0.0166667 0 0.05 0.0166667 0.0166667 0.05 0.0166667 0.0333333 0.05 0.0333333 -0.0333333 0.05 0.0333333 -0.0166667 0.05 0.0333333 1.77636e-18 0.05 0.0333333 0.0166667 0.05 0.0333333 0.0333333 0.05 -0.0333333 -0.05 -0.0333333 -0.0333333 -0.05 -0.0166667 -0.0333333 -0.05 0 -0.0333333 -0.05 0.0166667 -0.0333333 -0.05 0.0333333 -0.0166667 -0.05 -0.0333333 -0.0166667 -0.05 -0.0166667 -0.0166667 -0.05 0 -0.0166667 -0.05 0.0166667 -0.0166667 -0.05 0.0333333 0 -0.05 -0.0333333 0 -0.05 -0.0166667 0 -0.05 0 0 -0.05 0.0166667 0 -0.05 0.0333333 0.0166667 -0.05 -0.0333333 0.0166667 -0.05 -0.0166667 0.0166667 -0.05 0 0.0166667 -0.05 0.0166667 0.0166667 -0.05 0.0333333 0.0333333 -0.05 -0.0333333 0.0333333 -0.05 -0.0166667 0.0333333 -0.05 1.77636e-18 0.0333333 -0.05 0.0166667 0.0333333 -0.05 0.0333333 0.05 -0.0333333 -0.0333333 0.05 -0.0333333 -0.0166667 0.05 -0.0333333 0 0.05 -0.0333333 0.0166667 0.05 -0.0333333 0.0333333 0.05 -0.0166667 -0.0333333 0.05 -0.0166667 -0.0166667 0.05 -0.0166667 0 0.05 -0.0166667 0.0166667 0.05 -0.0166667 0.0333333 0.05 0 -0.0333333 0.05 0 -0.0166667 0.05 0 0 0.05 0 0.0166667 0.05 0 0.0333333 0.05 0.0166667 -0.0333333 0.05 0.0166667 -0.0166667 0.05 0.0166667 0 0.05 0.0166667 0.0166667 0.05 0.0166667 0.0333333 0.05 0.0333333 -0.0333333 0.05 0.0333333 -0.0166667 0.05 0.0333333 1.77636e-18 0.05 0.0333333 0.0166667 0.05 0.0333333 0.0333333 0.0333333 0.05 -0.0333333 0.0333333 0.05 -0.0166667 0.0333333 0.05 0 0.0333333 0.05 0.0166667 0.0333333 0.05 0.0333333 0.0166667 0.05 -0.0333333 0.0166667 0.05 -0.0166667 0.0166667 0.05 0 0.0166667 0.05 0.0166667 0.0166667 0.05 0.0333333 0 0.05 -0.0333333 0 0.05 -0.0166667 0 0.05 0 0 0.05 0.0166667 0 0.05 0.0333333 -0.0166667 0.05 -0.0333333 -0.0166667 0.05 -0.0166667 -0.0166667 0.05 0 -0.0166667 0.05 0.0166667 -0.0166667 0.05 0.0333333 -0.0333333 0.05 -0.0333333 -0.0333333 0.05 -0.0166667 -0.0333333 0.05 1.77636e-18 -0.0333333 0.05 0.0166667 -0.0333333 0.05 0.0333333 -0.05 0.0333333 -0.0333333 -0.05 0.0333333 -0.0166667 -0.05 0.0333333 0 -0.05 0.0333333 0.0166667 -0.05 0.0333333 0.0333333 -0.05 0.0166667 -0.0333333 -0.05 0.0166667 -0.0166667 -0.05 0.0166667 0 -0.05 0.0166667 0.0166667 -0.05 0.0166667 0.0333333 -0.05 0 -0.0333333 -0.05 0 -0.0166667 -0.05 0 0 -0.05 0 0.0166667 -0.05 0 0.0333333 -0.05 -0.0166667 -0.0333333 -0.05 -0.0166667 -0.0166667 -0.05 -0.0166667 0 -0.05 -0.0166667 0.0166667 -0.05 -0.0166667 0.0333333 -0.05 -0.0333333 -0.0333333 -0.05 -0.0333333 -0.0166667 -0.05 -0.0333333 1.77636e-18 -0.05 -0.0333333 0.0166667 -0.05 -0.0333333 0.0333333 -0.0333333 0.0333333 -0.0333333 -0.0333333 0.0333333 -0.0166667 -0.0333333 0.0333333 4.44089e-19 -0.0333333 0.0333333 0.0166667 -0.0333333 0.0333333 0.0333333 -0.0333333 0.0166667 -0.0333333 -0.0333333 0.0166667 -0.0166667 -0.0333333 0.0166667 -4.44089e-18 -0.0333333 0.0166667 0.0166667 -0.0333333 0.0166667 0.0333333 -0.0333333 -6.66134e-18 -0.0333333 -0.0333333 -9.76996e-18 -0.0166667 -0.0333333 -1.77636e-18 -1.77636e-18 -0.0333333 -1.77636e-18 0.0166667 -0.0333333 3.55271e-18 0.0333333 -0.0333333 -0.0166667 -0.0333333 -0.0333333 -0.0166667 -0.0166667 -0.0333333 -0.0166667 1.77636e-18 -0.0333333 -0.0166667 0.0166667 -0.0333333 -0.0166667 0.0333333 -0.0333333 -0.0333333 -0.0333333 -0.0333333 -0.0333333 -0.0166667 -0.0333333 -0.0333333 0 -0.0333333 -0.0333333 0.0166667 -0.0333333 -0.0333333 0.0333333 -0.0166667 0.0333333 -0.0333333 -0.0166667 0.0333333 -0.0166667 -0.0166667 0.0333333 2.66454e-18 -0.0166667 0.0333333 0.0166667 -0.0166667 0.0333333 0.0333333 -0.0166667 0.0166667 -0.0333333 -0.0166667 0.0166667 -0.0166667 -0.0166667 0.0166667 -1.77636e-18 -0.0166667 0.0166667 0.0166667 -0.0166667 0.0166667 0.0333333 -0.0166667 -1.06581e-17 -0.0333333 -0.0166667 -1.15463e-17 -0.0166667 -0.0166667 -3.55271e-18 0 -0.0166667 -8.88178e-18 0.0166667 -0.0166667 -1.77636e-18 0.0333333 -0.0166667 -0.0166667 -0.0333333 -0.0166667 -0.0166667 -0.0166667 -0.0166667 -0.0166667 3.55271e-18 -0.0166667 -0.0166667 0.0166667 -0.0166667 -0.0166667 0.0333333 -0.0166667 -0.0333333 -0.0333333 -0.0166667 -0.0333333 -0.0166667 -0.0166667 -0.0333333 0 -0.0166667 -0.0333333 0.0166667 -0.0166667 -0.0333333 0.0333333 3.44169e-18 0.0333333 -0.0333333 1.02141e-17 0.0333333 -0.0166667 2.66454e-18 0.0333333 -8.88178e-19 6.21725e-18 0.0333333 0.0166667 1.33227e-18 0.0333333 0.0333333 7.99361e-18 0.0166667 -0.0333333 8.43769e-18 0.0166667 -0.0166667 8.88178e-19 0.0166667 8.88178e-19 7.99361e-18 0.0166667 0.0166667 3.55271e-18 0.0166667 0.0333333 3.55271e-18 -1.77636e-18 -0.0333333 9.76996e-18 -9.76996e-18 -0.0166667 0 -8.88178e-19 -8.88178e-19 8.88178e-18 -8.88178e-18 0.0166667 1.77636e-18 -1.77636e-18 0.0333333 1.02141e-17 -0.0166667 -0.0333333 1.24345e-17 -0.0166667 -0.0166667 3.55271e-18 -0.0166667 -1.77636e-18 8.88178e-18 -0.0166667 0.0166667 3.55271e-18 -0.0166667 0.0333333 5.77316e-18 -0.0333333 -0.0333333 4.44089e-18 -0.0333333 -0.0166667 1.77636e-18 -0.0333333 1.77636e-18 5.32907e-18 -0.0333333 0.0166667 0 -0.0333333 0.0333333 0.0166667 0.0333333 -0.0333333 0.0166667 0.0333333 -0.0166667 0.0166667 0.0333333 -2.66454e-18 0.0166667 0.0333333 0.0166667 0.0166667 0.0333333 0.0333333 0.0166667 0.0166667 -0.0333333 0.0166667 0.0166667 -0.0166667 0.0166667 0.0166667 3.10862e-18 0.0166667 0.0166667 0.0166667 0.0166667 0.0166667 0.0333333 0.0166667 -1.24345e-17 -0.0333333 0.0166667 -1.37668e-17 -0.0166667 0.0166667 -3.55271e-18 -1.77636e-18 0.0166667 -6.21725e-18 0.0166667 0.0166667 -8.88178e-19 0.0333333 0.0166667 -0.0166667 -0.0333333 0.0166667 -0.0166667 -0.0166667 0.0166667 -0.0166667 2.66454e-18 0.0166667 -0.0166667 0.0166667 0.0166667 -0.0166667 0.0333333 0.0166667 -0.0333333 -0.0333333 0.0166667 -0.0333333 -0.0166667 0.0166667 -0.0333333 0 0.0166667 -0.0333333 0.0166667 0.0166667 -0.0333333 0.0333333 0.0333333 0.0333333 -0.0333333 0.0333333 0.0333333 -0.0166667 0.0333333 0.0333333 3.33067e-19 0.0333333 0.0333333 0.0166667 0.0333333 0.0333333 0.0333333 0.0333333 0.0166667 -0.0333333 0.0333333 0.0166667 -0.0166667 0.0333333 0.0166667 1.11022e-18 0.0333333 0.0166667 0.0166667 0.0333333 0.0166667 0.0333333 0.0333333 -4.44089e-18 -0.0333333 0.0333333 -4.21885e-18 -0.0166667 0.0333333 8.88178e-19 8.88178e-19 0.0333333 -1.33227e-18 0.0166667 0.0333333 3.55271e-18 0.0333333 0.0333333 -0.0166667 -0.0333333 0.0333333 -0.0166667 -0.0166667 0.0333333 -0.0166667 2.22045e-18 0.0333333 -0.0166667 0.0166667 0.0333333 -0.0166667 0.0333333 0.0333333 -0.0333333 -0.0333333 0.0333333 -0.0333333 -0.0166667 0.0333333 -0.0333333 2.22045e-18 0.0333333 -0.0333333 0.0166667 0.0333333 -0.0333333 0.0333333 </DataArray>
</Points>
<Cells>
<DataArray type="Int32" Name="connectivity" format="ascii">
68 22 3 23 218 188 63 193 218 188 63 193 219 189 64 194 219 189 64 194 220 190 65 195 220 190 65 195 221 191 66 196 221 191 66 196 222 192 67 197 222 192 67 197 97 42 7 43 69 68 23 24 223 218 193 198 223 218 193 198 224 219 194 199 224 219 194 199 225 220 195 200 225 220 195 200 226 221 196 201 226 221 196 201 227 222 197 202 227 222 197 202 96 97 43 44 70 69 24 25 228 223 198 203 228 223 198 203 229 224 199 204 229 224 199 204 230 225 200 205 230 225 200 205 231 226 201 206 231 226 201 206 232 227 202 207 232 227 202 207 95 96 44 45 71 70 25 26 233 228 203 208 233 228 203 208 234 229 204 209 234 229 204 209 235 230 205 210 235 230 205 210 236 231 206 211 236 231 206 211 237 232 207 212 237 232 207 212 94 95 45 46 72 71 26 27 238 233 208 213 238 233 208 213 239 234 209 214 239 234 209 214 240 235 210 215 240 235 210 215 241 236 211 216 241 236 211 216 242 237 212 217 242 237 212 217 93 94 46 47 8 72 27 0 118 238 213 48 118 238 213 48 119 239 214 49 119 239 214 49 120 240 215 50 120 240 215 50 121 241 216 51 121 241 216 51 122 242 217 52 122 242 217 52 28 93 47 4 73 21 22 68 243 183 188 218 243 183 188 218 244 184 189 219 244 184 189 219 245 185 190 220 245 185 190 220 246 186 191 221 246 186 191 221 247 187 192 222 247 187 192 222 102 41 42 97 74 73 68 69 248 243 218 223 248 243 218 223 249 244 219 224 249 244 219 224 250 245 220 225 250 245 220 225 251 246 221 226 251 246 221 226 252 247 222 227 252 247 222 227 101 102 97 96 75 74 69 70 253 248 223 228 253 248 223 228 254 249 224 229 254 249 224 229 255 250 225 230 255 250 225 230 256 251 226 231 256 251 226 231 257 252 227 232 257 252 227 232 100 101 96 95 76 75 70 71 258 253 228 233 258 253 228 233 259 254 229 234 259 254 229 234 260 255 230 235 260 255 230 235 261 256 231 236 261 256 231 236 262 257 232 237 262 257 232 237 99 100 95 94 77 76 71 72 263 258 233 238 263 258 233 238 264 259 234 239 264 259 234 239 265 260 235 240 265 260 235 240 266 261 236 241 266 261 236 241 267 262 237 242 267 262 237 242 98 99 94 93 9 77 72 8 123 263 238 118 123 263 238 118 124 264 239 119 124 264 239 119 125 265 240 120 125 265 240 120 126 266 241 121 126 266 241 121 127 267 242 122 127 267 242 122 29 98 93 28 78 20 21 73 268 178 183 243 268 178 183 243 269 179 184 244 269 179 184 244 270 180 185 245 270 180 185 245 271 181 186 246 271 181 186 246 272 182 187 247 272 182 187 247 107 40 41 102 79 78 73 74 273 268 243 248 273 268 243 248 274 269 244 249 274 269 244 249 275 270 245 250 275 270 245 250 276 271 246 251 276 271 246 251 277 272 247 252 277 272 247 252 106 107 102 101 80 79 74 75 278 273 248 253 278 273 248 253 279 274 249 254 279 274 249 254 280 275 250 255 280 275 250 255 281 276 251 256 281 276 251 256 282 277 252 257 282 277 252 257 105 106 101 100 81 80 75 76 283 278 253 258 283 278 253 258 284 279 254 259 284 279 254 259 285 280 255 260 285 280 255 260 286 281 256 261 286 281 256 261 287 282 257 262 287 282 257 262 104 105 100 99 82 81 76 77 288 283 258 263 288 283 258 263 289 284 259 264 289 284 259 264 290 285 260 265 290 285 260 265 291 286 261 266 291 286 261 266 292 287 262 267 292 287 262 267 103 104 99 98 10 82 77 9 128 288 263 123 128 288 263 123 129 289 264 124 129 289 264 124 130 290 265 125 130 290 265 125 131 291 266 126 131 291 266 126 132 292 267 127 132 292 267 127 30 103 98 29 83 19 20 78 293 173 178 268 293 173 178 268 294 174 179 269 294 174 179 269 295 175 180 270 295 175 180 270 296 176 181 271 296 176 181 271 297 177 182 272 297 177 182 272 112 39 40 107 84 83 78 79 298 293 268 273 298 293 268 273 299 294 269 274 299 294 269 274 300 295 270 275 300 295 270 275 301 296 271 276 301 296 271 276 302 297 272 277 302 297 272 277 111 112 107 106 85 84 79 80 303 298 273 278 303 298 273 278 304 299 274 279 304 299 274 279 305 300 275 280 305 300 275 280 306 301 276 281 306 301 276 281 307 302 277 282 307 302 277 282 110 111 106 105 86 85 80 81 308 303 278 283 308 303 278 283 309 304 279 284 309 304 279 284 310 305 280 285 310 305 280 285 311 306 281 286 311 306 281 286 312 307 282 287 312 307 282 287 109 110 105 104 87 86 81 82 313 308 283 288 313 308 283 288 314 309 284 289 314 309 284 289 315 310 285 290 315 310 285 290 316 311 286 291 316 311 286 291 317 312 287 292 317 312 287 292 108 109 104 103 11 87 82 10 133 313 288 128 133 313 288 128 134 314 289 129 134 314 289 129 135 315 290 130 135 315 290 130 136 316 291 131 136 316 291 131 137 317 292 132 137 317 292 132 31 108 103 30 88 18 19 83 318 168 173 293 318 168 173 293 319 169 174 294 319 169 174 294 320 170 175 295 320 170 175 295 321 171 176 296 321 171 176 296 322 172 177 297 322 172 177 297 117 38 39 112 89 88 83 84 323 318 293 298 323 318 293 298 324 319 294 299 324 319 294 299 325 320 295 300 325 320 295 300 326 321 296 301 326 321 296 301 327 322 297 302 327 322 297 302 116 117 112 111 90 89 84 85 328 323 298 303 328 323 298 303 329 324 299 304 329 324 299 304 330 325 300 305 330 325 300 305 331 326 301 306 331 326 301 306 332 327 302 307 332 327 302 307 115 116 111 110 91 90 85 86 333 328 303 308 333 328 303 308 334 329 304 309 334 329 304 309 335 330 305 310 335 330 305 310 336 331 306 311 336 331 306 311 337 332 307 312 337 332 307 312 114 115 110 109 92 91 86 87 338 333 308 313 338 333 308 313 339 334 309 314 339 334 309 314 340 335 310 315 340 335 310 315 341 336 311 316 341 336 311 316 342 337 312 317 342 337 312 317 113 114 109 108 12 92 87 11 138 338 313 133 138 338 313 133 139 339 314 134 139 339 314 134 140 340 315 135 140 340 315 135 141 341 316 136 141 341 316 136 142 342 317 137 142 342 317 137 32 113 108 31 17 2 18 88 163 58 168 318 163 58 168 318 164 59 169 319 164 59 169 319 165 60 170 320 165 60 170 320 166 61 171 321 166 61 171 321 167 62 172 322 167 62 172 322 37 6 38 117 16 17 88 89 158 163 318 323 158 163 318 323 159 164 319 324 159 164 319 324 160 165 320 325 160 165 320 325 161 166 321 326 161 166 321 326 162 167 322 327 162 167 322 327 36 37 117 116 15 16 89 90 153 158 323 328 153 158 323 328 154 159 324 329 154 159 324 329 155 160 325 330 155 160 325 330 156 161 326 331 156 161 326 331 157 162 327 332 157 162 327 332 35 36 116 115 14 15 90 91 148 153 328 333 148 153 328 333 149 154 329 334 149 154 329 334 150 155 330 335 150 155 330 335 151 156 331 336 151 156 331 336 152 157 332 337 152 157 332 337 34 35 115 114 13 14 91 92 143 148 333 338 143 148 333 338 144 149 334 339 144 149 334 339 145 150 335 340 145 150 335 340 146 151 336 341 146 151 336 341 147 152 337 342 147 152 337 342 33 34 114 113 1 13 92 12 53 143 338 138 53 143 338 138 54 144 339 139 54 144 339 139 55 145 340 140 55 145 340 140 56 146 341 141 56 146 341 141 57 147 342 142 57 147 342 142 5 33 113 32 </DataArray>
<DataArray type="Int32" Name="offsets" format="ascii">
8 16 24 32 40 48 56 64 72 80 88 96 104 112 120 128 136 144 152 160 168 176 184 192 200 208 216 224 232 240 248 256 264 272 280 288 296 304 312 320 328 336 344 352 360 368 376 384 392 400 408 416 424 432 440 448 456 464 472 480 488 496 504 512 520 528 536 544 552 560 568 576 584 592 600 608 616 624 632 640 648 656 664 672 680 688 696 704 712 720 728 736 744 752 760 768 776 784 792 800 808 816 824 832 840 848 856 864 872 880 888 896 904 912 920 928 936 944 952 960 968 976 984 992 1000 1008 1016 1024 1032 1040 1048 1056 1064 1072 1080 1088 1096 1104 1112 1120 1128 1136 1144 1152 1160 1168 1176 1184 1192 1200 1208 1216 1224 1232 1240 1248 1256 1264 1272 1280 1288 1296 1304 1312 1320 1328 1336 1344 1352 1360 1368 1376 1384 1392 1400 1408 1416 1424 1432 1440 1448 1456 1464 1472 1480 1488 1496 1504 1512 1520 1528 1536 1544 1552 1560 1568 1576 1584 1592 1600 1608 1616 1624 1632 1640 1648 1656 1664 1672 1680 1688 1696 1704 1712 1720 1728 </DataArray>
<DataArray type="UInt8" Name="types" format="ascii">
12 12 12 12 12 12 12 12 12 12 12 12 12 12 12 12 12 12 12 12 12 12 12 12 12 12 12 12 12 12 12 12 12 12 12 12 12 12 12 12 12 12 12 12 12 12 12 12 12 12 12 12 12 12 12 12 12 12 12 12 12 12 12 12 12 12 12 12 12 12 12 12 12 12 12 12 12 12 12 12 12 12 12 12 12 12 12 12 12 12 12 12 12 12 12 12 12 12 12 12 12 12 12 12 12 12 12 12 12 12 12 12 12 12 12 12 12 12 12 12 12 12 12 12 12 12 12 12 12 12 12 12 12 12 12 12 12 12 12 12 12 12 12 12 12 12 12 12 12 12 12 12 12 12 12 12 12 12 12 12 12 12 12 12 12 12 12 12 12 12 12 12 12 12 12 12 12 12 12 12 12 12 12 12 12 12 12 12 12 12 12 12 12 12 12 12 12 12 12 12 12 12 12 12 12 12 12 12 12 12 12 12 12 12 12 12 </DataArray>
</Cells>
<CellData Scalars="scalars">
<DataArray type="Float32" Name="number_density" format="ascii">
8.208e+15 7.776e+15 9.936e+15 7.56e+15 9.936e+15 9.504e+15 7.56e+15 8.64e+15 8.64e+15 1.1016e+16 8.424e+15 1.0368e+16 9.288e+15 9.936e+15 6.912e+15 6.48e+15 8.208e+15 1.296e+16 8.856e+15 1.1232e+16 8.424e+15 9.288e+15 8.64e+15 8.856e+15 1.0152e+16 7.344e+15 1.188e+16 1.0584e+16 9.288e+15 1.1664e+16 1.0584e+16 8.64e+15 9.072e+15 9.72e+15 9.072e+15 7.56e+15 8.856e+15 9.288e+15 9.072e+15 9.936e+15 1.0152e+16 9.072e+15 7.992e+15 8.424e+15 9.72e+15 1.1664e+16 1.1448e+16 1.1016e+16 8.424e+15 1.08e+16 9.072e+15 1.3176e+16 1.2528e+16 9.072e+15 9.72e+15 1.1448e+16 9.936e+15 1.1664e+16 1.2312e+16 8.208e+15 8.856e+15 9.288e+15 1.0368e+16 1.1232e+16 7.776e+15 1.08e+16 1.0152e+16 8.856e+15 1.188e+16 1.0152e+16 1.1016e+16 9.936e+15 7.776e+15 9.936e+15 1.188e+16 9.936e+15 1.0368e+16 9.504e+15 7.992e+15 9.504e+15 1.1016e+16 1.08e+16 1.1232e+16 1.0368e+16 7.344e+15 1.08e+16 1.512e+16 1.2744e+16 1.4472e+16 1.2528e+16 7.56e+15 1.0368e+16 1.6632e+16 1.3176e+16 1.3824e+16 8.856e+15 7.776e+15 7.56e+15 1.0584e+16 9.504e+15 1.1448e+16 9.504e+15 8.856e+15 1.0152e+16 8.64e+15 8.424e+15 9.72e+15 9.72e+15 9.288e+15 9.72e+15 9.504e+15 1.1016e+16 1.0584e+16 1.188e+16 8.856e+15 1.1448e+16 1.0368e+16 9.72e+15 1.1664e+16 1.2096e+16 8.424e+15 1.1232e+16 1.3392e+16 1.1232e+16 1.512e+16 1.0368e+16 7.992e+15 7.992e+15 1.1448e+16 1.296e+16 9.504e+15 1.188e+16 1.188e+16 9.288e+15 1.0368e+16 1.2528e+16 1.0368e+16 1.0152e+16 6.48e+15 1.0584e+16 7.128e+15 1.0152e+16 7.344e+15 9.936e+15 9.288e+15 9.72e+15 9.288e+15 1.1232e+16 9.288e+15 9.936e+15 9.072e+15 1.2744e+16 1.0368e+16 1.1232e+16 1.2528e+16 9.936e+15 9.504e+15 1.2744e+16 1.0152e+16 1.1016e+16 9.72e+15 1.0584e+16 1.0368e+16 7.344e+15 1.3824e+16 1.08e+16 1.1664e+16 1.1232e+16 8.64e+15 1.1016e+16 8.64e+15 8.856e+15 9.504e+15 9.288e+15 9.072e+15 8.208e+15 8.64e+15 8.208e+15 1.0152e+16 1.0368e+16 9.936e+15 1.0152e+16 1.08e+16 1.0152e+16 8.856e+15 1.1664e+16 8.64e+15 1.0584e+16 1.0368e+16 1.0152e+16 9.072e+15 9.288e+15 9.072e+15 9.288e+15 9.288e+15 1.296e+16 9.288e+15 1.0368e+16 1.1016e+16 5.184e+15 9.072e+15 9.936e+15 9.072e+15 1.08e+16 9.72e+15 9.936e+15 1.0152e+16 8.424e+15 9.72e+15 1.08e+16 1.0152e+16 6.48e+15 9.72e+15 8.208e+15 9.504e+15 1.296e+16 </DataArray>
<DataArray type="Float32" Name="potential" format="ascii">
0 0 0 0 0 0 0 0 0 0 0 0 0 0 0 0 0 0 0 0 0 0 0 0 0 0 0 0 0 0 0 0 0 0 0 0 0 0 0 0 0 0 0 0 0 0 0 0 0 0 0 0 0 0 0 0 0 0 0 0 0 0 0 0 0 0 0 0 0 0 0 0 0 0 0 0 0 0 0 0 0 0 0 0 0 0 0 0 0 0 0 0 0 0 0 0 0 0 0 0 0 0 0 0 0 0 0 0 0 0 0 0 0 0 0 0 0 0 0 0 0 0 0 0 0 0 0 0 0 0 0 0 0 0 0 0 0 0 0 0 0 0 0 0 0 0 0 0 0 0 0 0 0 0 0 0 0 0 0 0 0 0 0 0 0 0 0 0 0 0 0 0 0 0 0 0 0 0 0 0 0 0 0 0 0 0 0 0 0 0 0 0 0 0 0 0 0 0 0 0 0 0 0 0 0 0 0 0 0 0 0 0 0 0 0 0 </DataArray>
<DataArray type="Float32" Name="temperature" format="ascii">
240.71 329.473 264.662 274.129 331.316 303.773 245.96 347.216 356.294 391.669 326.543 356.133 269.196 302.352 302.788 290.558 315.125 322.945 303.92 314.593 296.933 414.611 271.497 284.834 202.824 277.883 262.592 239.826 324.154 343.987 301.99 331.791 304.072 301.174 267.689 316.07 225.725 270.936 343.913 293.95 286.025 295.126 305.943 309.543 338.588 321.243 282.831 279.106 294.667 317.59 340.438 329.856 368.11 273.856 270.816 268.109 334.619 345.813 296.162 303.947 437.088 265.141 296.926 225.866 261.052 263.974 320.871 234.898 259.552 337.037 258.369 277.816 267.595 263.638 310.061 290.024 305.191 365.152 245.76 276.978 374.474 312.389 302.684 274.502 322.532 356.884 334.633 369.528 350.676 315.517 278.87 339.377 336.755 340.883 306.621 308.608 233.501 315.754 331.179 426.172 288.795 275.055 368.504 316.768 283.704 391.043 343.33 359.95 255.296 257.957 362.814 333.893 294.106 237.009 215.994 348.457 292.338 342.229 344.394 278.377 251.713 310.768 432.222 386.842 370.55 299.538 348.441 298.049 400.997 423.054 442.698 302.866 274.842 406.556 302.037 268.272 322.017 313.08 268.742 323.558 320.831 291.196 278.289 247.318 306.596 315.212 315.505 270.367 290.729 258.065 294.026 279.948 321.131 356.671 321.954 305.3 271.816 296.142 327.197 320.506 328.993 319.127 298.699 319.241 288.295 378.091 302.831 249.713 313.484 320.414 331.769 215.782 349.253 275.529 263.319 265.381 260.536 232.376 273.479 296.396 271.521 297.444 351.495 281.056 274.358 338.262 301.934 337.213 301.452 314.166 228.453 293.205 280.698 285.16 254.793 285.542 298.363 324.595 245.499 250.999 297.271 342.321 235.927 288.04 292.714 253.886 267.248 290.424 264.982 303.594 269.163 261.384 290.29 346.078 254.882 224.848 </DataArray>
<DataArray type="Float32" Name="velocity" format="ascii">
64.0671 152.671 144.263 143.665 95.3195 41.3525 113.909 149.37 291.769 211.988 179.214 90.8033 199.872 235.899 321.819 212.897 159.658 9.14803 120.368 269.318 262.726 218.976 89.9281 108.19 76.2848 138.316 141.592 164.145 105.175 142.128 65.9455 79.8882 165.926 125.251 129.072 87.5802 123.855 252.645 165.348 202.412 73.1171 48.2509 136.276 325.537 256.743 250.129 170.108 62.6841 235.2 346.238 447.629 360.357 185.828 105.841 246.755 308.407 415.8 324.2 182.54 64.004 126.655 299.505 288.151 291.959 187.333 87.8118 73.3677 142.285 193.167 163.836 133.099 82.389 179.491 215.078 285.161 230.268 34.0737 91.994 305.922 329.469 408.815 267.231 112.975 58.5836 320.88 531.843 605.169 269.814 131.431 125.343 231.776 460.564 571.922 369.363 194.864 152.59 182.332 340.648 405.148 377.255 193.841 181.135 102.641 248.337 216.711 117.349 109.445 22.7372 133.974 215.646 260.181 247.466 116.851 42.7455 215.341 355.14 452.841 215.534 84.8263 72.1228 385.61 503.675 551.436 306.67 77.4128 87.5541 373.163 464.693 533.844 459.585 174.073 165.948 290.814 390.074 425.803 387.624 208.661 132.345 175.119 209.566 272.752 258.417 150.901 120.908 123.86 179.147 225.905 100.953 42.0433 61.6897 177.671 269.367 284.788 202.285 143.014 81.3793 230.87 340.451 349.151 271.643 110.647 79.6821 262.211 351.206 410.956 387.838 241.243 89.736 70.2335 320.981 365.94 304.924 187.588 146.044 123.701 182.496 230.735 207.089 107.966 116.247 58.0353 87.8535 107.128 96.7683 79.4568 42.8718 114.677 179.414 162.548 154.625 84.893 37.706 101.877 242.002 252.122 207.219 133.953 120.472 188.128 322.365 258.511 244.241 167.038 41.7871 109.379 199.171 250.004 177.494 114.448 86.9217 61.6823 100.359 196.948 111.996 37.6643 128.348 </DataArray>
<DataArray type="Float32" Name="E_field" format="ascii">
0 0 0 0 0 0 0 0 0 0 0 0 0 0 0 0 0 0 0 0 0 0 0 0 0 0 0 0 0 0 0 0 0 0 0 0 0 0 0 0 0 0 0 0 0 0 0 0 0 0 0 0 0 0 0 0 0 0 0 0 0 0 0 0 0 0 0 0 0 0 0 0 0 0 0 0 0 0 0 0 0 0 0 0 0 0 0 0 0 0 0 0 0 0 0 0 0 0 0 0 0 0 0 0 0 0 0 0 0 0 0 0 0 0 0 0 0 0 0 0 0 0 0 0 0 0 0 0 0 0 0 0 0 0 0 0 0 0 0 0 0 0 0 0 0 0 0 0 0 0 0 0 0 0 0 0 0 0 0 0 0 0 0 0 0 0 0 0 0 0 0 0 0 0 0 0 0 0 0 0 0 0 0 0 0 0 0 0 0 0 0 0 0 0 0 0 0 0 0 0 0 0 0 0 0 0 0 0 0 0 0 0 0 0 0 0 </DataArray>
</CellData>
<PointData Scalars="number_density">
<DataArray type="Float32" Name="number_density" format="ascii">
1.0584e+16 1.0152e+16 9.936e+15 8.208e+15 7.56e+15 1.296e+16 1.1664e+16 9.504e+15 1.0368e+16 9.504e+15 7.668e+15 7.776e+15 9.612e+15 9.936e+15 1.0368e+16 1.0044e+16 8.856e+15 9.288e+15 9.612e+15 9.288e+15 8.532e+15 8.316e+15 8.532e+15 7.884e+15 8.424e+15 9.072e+15 9.504e+15 1.0368e+16 8.748e+15 9.828e+15 9.828e+15 1.0152e+16 1.1664e+16 1.188e+16 1.08e+16 1.0584e+16 9.828e+15 1.0476e+16 1.08e+16 1.0908e+16 1.0692e+16 9.288e+15 9.288e+15 9.936e+15 1.1664e+16 1.0908e+16 1.026e+16 9.612e+15 9.612e+15 8.856e+15 9.396e+15 9.396e+15 8.316e+15 8.316e+15 8.1e+15 8.964e+15 8.856e+15 1.1232e+16 1.0044e+16 1.0476e+16 1.0476e+16 9.504e+15 1.026e+16 7.992e+15 8.856e+15 8.748e+15 8.748e+15 9.72e+15 8.154e+15 8.316e+15 9.072e+15 9.396e+15 9.936e+15 8.154e+15 7.938e+15 8.262e+15 8.478e+15 8.91e+15 8.478e+15 8.154e+15 7.83e+15 8.802e+15 8.748e+15 9.126e+15 8.964e+15 9.072e+15 9.72e+15 9.018e+15 9.234e+15 9.072e+15 9.99e+15 9.936e+15 9.396e+15 9.99e+15 9.882e+15 9.774e+15 1.0854e+16 9.99e+15 9.99e+15 9.342e+15 9.666e+15 1.0746e+16 9.99e+15 9.828e+15 1.0098e+16 1.0908e+16 1.134e+16 1.0962e+16 9.936e+15 1.0638e+16 1.1016e+16 1.0746e+16 1.0962e+16 1.0854e+16 1.053e+16 1.0746e+16 1.0044e+16 1.0206e+16 9.558e+15 9.612e+15 1.0206e+16 9.99e+15 9.396e+15 9.504e+15 9.882e+15 9.774e+15 9.828e+15 1.0098e+16 9.018e+15 9.126e+15 8.586e+15 8.91e+15 9.18e+15 8.586e+15 8.64e+15 8.532e+15 8.964e+15 9.45e+15 8.478e+15 8.262e+15 8.694e+15 9.018e+15 1.0746e+16 9.072e+15 9.072e+15 9.126e+15 8.964e+15 1.0746e+16 8.964e+15 8.586e+15 9.396e+15 9.288e+15 1.0098e+16 8.64e+15 8.208e+15 1.0314e+16 1.0314e+16 9.882e+15 9.396e+15 9.882e+15 1.0692e+16 1.0368e+16 9.504e+15 9.828e+15 1.0476e+16 1.0368e+16 9.558e+15 9.72e+15 9.774e+15 9.99e+15 1.0368e+16 9.882e+15 9.936e+15 9.504e+15 9.558e+15 1.026e+16 1.053e+16 1.0422e+16 9.18e+15 1.026e+16 1.0584e+16 1.0476e+16 1.0584e+16 8.964e+15 1.0044e+16 1.0206e+16 1.0098e+16 9.774e+15 8.532e+15 9.018e+15 9.126e+15 9.396e+15 9.666e+15 8.046e+15 8.748e+15 9.288e+15 9.234e+15 9.558e+15 8.856e+15 8.532e+15 8.262e+15 8.532e+15 9.99e+15 9.828e+15 9.126e+15 7.776e+15 8.154e+15 9.666e+15 9.396e+15 9.72e+15 1.0044e+16 9.45e+15 9.612e+15 9.18e+15 9.234e+15 1.0314e+16 9.666e+15 9.396e+15 8.343e+15 8.937e+15 9.693e+15 1.0017e+16 9.99e+15 8.883e+15 9.018e+15 9.585e+15 1.0368e+16 1.0503e+16 9.963e+15 9.72e+15 9.369e+15 1.0287e+16 1.0098e+16 9.612e+15 9.99e+15 1.0422e+16 1.0098e+16 9.693e+15 9.234e+15 9.666e+15 1.0611e+16 9.855e+15 9.639e+15 8.721e+15 9.855e+15 1.0503e+16 1.0692e+16 1.0395e+16 8.91e+15 1.0557e+16 1.1664e+16 1.2258e+16 1.1583e+16 9.558e+15 1.1772e+16 1.269e+16 1.2987e+16 1.1475e+16 9.072e+15 1.0773e+16 1.1637e+16 1.1367e+16 1.0341e+16 8.937e+15 9.666e+15 1.0098e+16 9.909e+15 9.99e+15 9.315e+15 1.0422e+16 1.053e+16 1.0665e+16 1.0962e+16 9.45e+15 1.161e+16 1.1799e+16 1.2123e+16 1.2231e+16 8.964e+15 1.2123e+16 1.3338e+16 1.2879e+16 1.2069e+16 8.802e+15 1.053e+16 1.215e+16 1.1664e+16 1.0692e+16 9.072e+15 9.288e+15 9.666e+15 9.936e+15 9.774e+15 1.0017e+16 1.0395e+16 1.0341e+16 1.0908e+16 1.0989e+16 1.0503e+16 1.1556e+16 1.0935e+16 1.1529e+16 1.1502e+16 9.45e+15 1.1016e+16 1.1853e+16 1.1502e+16 1.1259e+16 9.315e+15 9.99e+15 1.1178e+16 1.0773e+16 1.0449e+16 9.396e+15 9.234e+15 9.315e+15 9.639e+15 9.639e+15 1.0017e+16 1.0503e+16 1.0449e+16 1.0314e+16 1.0071e+16 1.0206e+16 1.0692e+16 1.0692e+16 1.0746e+16 1.0098e+16 9.315e+15 9.612e+15 1.0881e+16 1.0557e+16 1.0341e+16 9.153e+15 9.396e+15 9.963e+15 9.747e+15 1.026e+16 9.153e+15 9.099e+15 8.856e+15 9.072e+15 1.0287e+16 </DataArray>
<DataArray type="Float32" Name="potential" format="ascii">
0 0 0 0 0 0 0 0 0 0 0 0 0 0 0 0 0 0 0 0 0 0 0 0 0 0 0 0 0 0 0 0 0 0 0 0 0 0 0 0 0 0 0 0 0 0 0 0 0 0 0 0 0 0 0 0 0 0 0 0 0 0 0 0 0 0 0 0 0 0 0 0 0 0 0 0 0 0 0 0 0 0 0 0 0 0 0 0 0 0 0 0 0 0 0 0 0 0 0 0 0 0 0 0 0 0 0 0 0 0 0 0 0 0 0 0 0 0 0 0 0 0 0 0 0 0 0 0 0 0 0 0 0 0 0 0 0 0 0 0 0 0 0 0 0 0 0 0 0 0 0 0 0 0 0 0 0 0 0 0 0 0 0 0 0 0 0 0 0 0 0 0 0 0 0 0 0 0 0 0 0 0 0 0 0 0 0 0 0 0 0 0 0 0 0 0 0 0 0 0 0 0 0 0 0 0 0 0 0 0 0 0 0 0 0 0 0 0 0 0 0 0 0 0 0 0 0 0 0 0 0 0 0 0 0 0 0 0 0 0 0 0 0 0 0 0 0 0 0 0 0 0 0 0 0 0 0 0 0 0 0 0 0 0 0 0 0 0 0 0 0 0 0 0 0 0 0 0 0 0 0 0 0 0 0 0 0 0 0 0 0 0 0 0 0 0 0 0 0 0 0 0 0 0 0 0 0 0 0 0 0 0 0 0 0 0 0 0 0 0 0 0 0 0 0 0 0 0 0 0 0 0 0 0 0 0 0 0 0 0 0 0 0 </DataArray>
<DataArray type="Float32" Name="temperature" format="ascii">