<VTKFile type="UnstructuredGrid" version="0.1" byte_order="LittleEndian">
<UnstructuredGrid>
<Piece NumberOfPoints="343" NumberOfCells="216">
<Points>
<DataArray type="Float32" NumberOfComponents="3" format="ascii">
-0.05 -0.05 -0.05 0.05 -0.05 -0.05 0.05 0.05 -0.05 -0.05 0.05 -0.05 -0.05 -0.05 0.05 0.05 -0.05 0.05 0.05 0.05 0.05 -0.05 0.05 0.05 -0.0333333 -0.05 -0.05 -0.0166667 -0.05 -0.05 0 -0.05 -0.05 0.0166667 -0.05 -0.05 0.0333333 -0.05 -0.05 0.05 -0.0333333 -0.05 0.05 -0.0166667 -0.05 0.05 0 -0.05 0.05 0.0166667 -0.05 0.05 0.0333333 -0.05 0.0333333 0.05 -0.05 0.0166667 0.05 -0.05 0 0.05 -0.05 -0.0166667 0.05 -0.05 -0.0333333 0.05 -0.05 -0.05 0.0333333 -0.05 -0.05 0.0166667 -0.05 -0.05 0 -0.05 -0.05 -0.0166667 -0.05 -0.05 -0.0333333 -0.05 -0.0333333 -0.05 0.05 -0.0166667 -0.05 0.05 0 -0.05 0.05 0.0166667 -0.05 0.05 0.0333333 -0.05 0.05 0.05 -0.0333333 0.05 0.05 -0.0166667 0.05 0.05 0 0.05 0.05 0.0166667 0.05 0.05 0.0333333 0.05 0.0333333 0.05 0.05 0.0166667 0.05 0.05 0 0.05 0.05 -0.0166667 0.05 0.05 -0.0333333 0.05 0.05 -0.05 0.0333333 0.05 -0.05 0.0166667 0.05 -0.05 0 0.05 -0.05 -0.0166667 0.05 -0.05 -0.0333333 0.05 -0.05 -0.05 -0.0333333 -0.05 -0.05 -0.0166667 -0.05 -0.05 0 -0.05 -0.05 0.0166667 -0.05 -0.05 0.0333333 0.05 -0.05 -0.0333333 0.05 -0.05 -0.0166667 0.05 -0.05 0 0.05 -0.05 0.0166667 0.05 -0.05 0.0333333 0.05 0.05 -0.0333333 0.05 0.05 -0.0166667 0.05 0.05 0 0.05 0.05 0.0166667 0.05 0.05 0.0333333 -0.05 0.05 -0.0333333 -0.05 0.05 -0.0166667 -0.05 0.05 0 -0.05 0.05 0.0166667 -0.05 0.05 0.0333333 -0.0333333 0.0333333 -0.05 -0.0333333 0.0166667 -0.05 -0.0333333 -3.55271e-18 -0.05 -0.0333333 -0.0166667 -0.05 -0.0333333 -0.0333333 -0.05 -0.0166667 0.0333333 -0.05 -0.0166667 0.0166667 -0.05 -0.0166667 -7.10543e-18 -0.05 -0.0166667 -0.0166667 -0.05 -0.0166667 -0.0333333 -0.05 1.77636e-18 0.0333333 -0.05 5.32907e-18 0.0166667 -0.05 3.55271e-18 -1.77636e-18 -0.05 7.10543e-18 -0.0166667 -0.05 3.55271e-18 -0.0333333 -0.05 0.0166667 0.0333333 -0.05 0.0166667 0.0166667 -0.05 0.0166667 -7.10543e-18 -0.05 0.0166667 -0.0166667 -0.05 0.0166667 -0.0333333 -0.05 0.0333333 0.0333333 -0.05 0.0333333 0.0166667 -0.05 0.0333333 -1.77636e-18 -0.05 0.0333333 -0.0166667 -0.05 0.0333333 -0.0333333 -0.05 -0.0333333 -0.0333333 0.05 -0.0333333 -0.0166667 0.05 -0.0333333 0 0.05 -0.0333333 0.0166667 0.05 -0.0333333 0.0333333 0.05 -0.0166667 -0.0333333 0.05 -0.0166667 -0.0166667 0.05 -0.0166667 0 0.05 -0.0166667 0.0166667 0.05 -0.0166667 0.0333333 0.05 0 -0.0333333 0.05 0 -0.0166667 0.05 0 0 0.05 0 0.0166667 0.05 0 0.0333333 0.05 0.0166667 -0.0333333 0.05 0.0166667 -0.0166667 0.05 0.0166667 0 0.05 0.0166667 0.0166667 0.05 0.0166667 0.0333333 0.05 0.0333333 -0.0333333 0.05 0.0333333 -0.0166667 0.05 0.0333333 1.77636e-18 0.05 0.0333333 0.0166667 0.05 0.0333333 0.0333333 0.05 -0.0333333 -0.05 -0.0333333 -0.0333333 -0.05 -0.0166667 -0.0333333 -0.05 0 -0.0333333 -0.05 0.0166667 -0.0333333 -0.05 0.0333333 -0.0166667 -0.05 -0.0333333 -0.0166667 -0.05 -0.0166667 -0.0166667 -0.05 0 -0.0166667 -0.05 0.0166667 -0.0166667 -0.05 0.0333333 0 -0.05 -0.0333333 0 -0.05 -0.0166667 0 -0.05 0 0 -0.05 0.0166667 0 -0.05 0.0333333 0.0166667 -0.05 -0.0333333 0.0166667 -0.05 -0.0166667 0.0166667 -0.05 0 0.0166667 -0.05 0.0166667 0.0166667 -0.05 0.0333333 0.0333333 -0.05 -0.0333333 0.0333333 -0.05 -0.0166667 0.0333333 -0.05 1.77636e-18 0.0333333 -0.05 0.0166667 0.0333333 -0.05 0.0333333 0.05 -0.0333333 -0.0333333 0.05 -0.0333333 -0.0166667 0.05 -0.0333333 0 0.05 -0.0333333 0.0166667 0.05 -0.0333333 0.0333333 0.05 -0.0166667 -0.0333333 0.05 -0.0166667 -0.0166667 0.05 -0.0166667 0 0.05 -0.0166667 0.0166667 0.05 -0.0166667 0.0333333 0.05 0 -0.0333333 0.05 0 -0.0166667 0.05 0 0 0.05 0 0.0166667 0.05 0 0.0333333 0.05 0.0166667 -0.0333333 0.05 0.0166667 -0.0166667 0.05 0.0166667 0 0.05 0.0166667 0.0166667 0.05 0.0166667 0.0333333 0.05 0.0333333 -0.0333333 0.05 0.0333333 -0.0166667 0.05 0.0333333 1.77636e-18 0.05 0.0333333 0.0166667 0.05 0.0333333 0.0333333 0.0333333 0.05 -0.0333333 0.0333333 0.05 -0.0166667 0.0333333 0.05 0 0.0333333 0.05 0.0166667 0.0333333 0.05 0.0333333 0.0166667 0.05 -0.0333333 0.0166667 0.05 -0.0166667 0.0166667 0.05 0 0.0166667 0.05 0.0166667 0.0166667 0.05 0.0333333 0 0.05 -0.0333333 0 0.05 -0.0166667 0 0.05 0 0 0.05 0.0166667 0 0.05 0.0333333 -0.0166667 0.05 -0.0333333 -0.0166667 0.05 -0.0166667 -0.0166667 0.05 0 -0.0166667 0.05 0.0166667 -0.0166667 0.05 0.0333333 -0.0333333 0.05 -0.0333333 -0.0333333 0.05 -0.0166667 -0.0333333 0.05 1.77636e-18 -0.0333333 0.05 0.0166667 -0.0333333 0.05 0.0333333 -0.05 0.0333333 -0.0333333 -0.05 0.0333333 -0.0166667 -0.05 0.0333333 0 -0.05 0.0333333 0.0166667 -0.05 0.0333333 0.0333333 -0.05 0.0166667 -0.0333333 -0.05 0.0166667 -0.0166667 -0.05 0.0166667 0 -0.05 0.0166667 0.0166667 -0.05 0.0166667 0.0333333 -0.05 0 -0.0333333 -0.05 0 -0.0166667 -0.05 0 0 -0.05 0 0.0166667 -0.05 0 0.0333333 -0.05 -0.0166667 -0.0333333 -0.05 -0.0166667 -0.0166667 -0.05 -0.0166667 0 -0.05 -0.0166667 0.0166667 -0.05 -0.0166667 0.0333333 -0.05 -0.0333333 -0.0333333 -0.05 -0.0333333 -0.0166667 -0.05 -0.0333333 1.77636e-18 -0.05 -0.0333333 0.0166667 -0.05 -0.0333333 0.0333333 -0.0333333 0.0333333 -0.0333333 -0.0333333 0.0333333 -0.0166667 -0.0333333 0.0333333 4.44089e-19 -0.0333333 0.0333333 0.0166667 -0.0333333 0.0333333 0.0333333 -0.0333333 0.0166667 -0.0333333 -0.0333333 0.0166667 -0.0166667 -0.0333333 0.0166667 -4.44089e-18 -0.0333333 0.0166667 0.0166667 -0.0333333 0.0166667 0.0333333 -0.0333333 -6.66134e-18 -0.0333333 -0.0333333 -9.76996e-18 -0.0166667 -0.0333333 -1.77636e-18 -1.77636e-18 -0.0333333 -1.77636e-18 0.0166667 -0.0333333 3.55271e-18 0.0333333 -0.0333333 -0.0166667 -0.0333333 -0.0333333 -0.0166667 -0.0166667 -0.0333333 -0.0166667 1.77636e-18 -0.0333333 -0.0166667 0.0166667 -0.0333333 -0.0166667 0.0333333 -0.0333333 -0.0333333 -0.0333333 -0.0333333 -0.0333333 -0.0166667 -0.0333333 -0.0333333 0 -0.0333333 -0.0333333 0.0166667 -0.0333333 -0.0333333 0.0333333 -0.0166667 0.0333333 -0.0333333 -0.0166667 0.0333333 -0.0166667 -0.0166667 0.0333333 2.66454e-18 -0.0166667 0.0333333 0.0166667 -0.0166667 0.0333333 0.0333333 -0.0166667 0.0166667 -0.0333333 -0.0166667 0.0166667 -0.0166667 -0.0166667 0.0166667 -1.77636e-18 -0.0166667 0.0166667 0.0166667 -0.0166667 0.0166667 0.0333333 -0.0166667 -1.06581e-17 -0.0333333 -0.0166667 -1.15463e-17 -0.0166667 -0.0166667 -3.55271e-18 0 -0.0166667 -8.88178e-18 0.0166667 -0.0166667 -1.77636e-18 0.0333333 -0.0166667 -0.0166667 -0.0333333 -0.0166667 -0.0166667 -0.0166667 -0.0166667 -0.0166667 3.55271e-18 -0.0166667 -0.0166667 0.0166667 -0.0166667 -0.0166667 0.0333333 -0.0166667 -0.0333333 -0.0333333 -0.0166667 -0.0333333 -0.0166667 -0.0166667 -0.0333333 0 -0.0166667 -0.0333333 0.0166667 -0.0166667 -0.0333333 0.0333333 3.44169e-18 0.0333333 -0.0333333 1.02141e-17 0.0333333 -0.0166667 2.66454e-18 0.0333333 -8.88178e-19 6.21725e-18 0.0333333 0.0166667 1.33227e-18 0.0333333 0.0333333 7.99361e-18 0.0166667 -0.0333333 8.43769e-18 0.0166667 -0.0166667 8.88178e-19 0.0166667 8.88178e-19 7.99361e-18 0.0166667 0.0166667 3.55271e-18 0.0166667 0.0333333 3.55271e-18 -1.77636e-18 -0.0333333 9.76996e-18 -9.76996e-18 -0.0166667 0 -8.88178e-19 -8.88178e-19 8.88178e-18 -8.88178e-18 0.0166667 1.77636e-18 -1.77636e-18 0.0333333 1.02141e-17 -0.0166667 -0.0333333 1.24345e-17 -0.0166667 -0.0166667 3.55271e-18 -0.0166667 -1.77636e-18 8.88178e-18 -0.0166667 0.0166667 3.55271e-18 -0.0166667 0.0333333 5.77316e-18 -0.0333333 -0.0333333 4.44089e-18 -0.0333333 -0.0166667 1.77636e-18 -0.0333333 1.77636e-18 5.32907e-18 -0.0333333 0.0166667 0 -0.0333333 0.0333333 0.0166667 0.0333333 -0.0333333 0.0166667 0.0333333 -0.0166667 0.0166667 0.0333333 -2.66454e-18 0.0166667 0.0333333 0.0166667 0.0166667 0.0333333 0.0333333 0.0166667 0.0166667 -0.0333333 0.0166667 0.0166667 -0.0166667 0.0166667 0.0166667 3.10862e-18 0.0166667 0.0166667 0.0166667 0.0166667 0.0166667 0.0333333 0.0166667 -1.24345e-17 -0.0333333 0.0166667 -1.37668e-17 -0.0166667 0.0166667 -3.55271e-18 -1.77636e-18 0.0166667 -6.21725e-18 0.0166667 0.0166667 -8.88178e-19 0.0333333 0.0166667 -0.0166667 -0.0333333 0.0166667 -0.0166667 -0.0166667 0.0166667 -0.0166667 2.66454e-18 0.0166667 -0.0166667 0.0166667 0.0166667 -0.0166667 0.0333333 0.0166667 -0.0333333 -0.0333333 0.0166667 -0.0333333 -0.0166667 0.0166667 -0.0333333 0 0.0166667 -0.0333333 0.0166667 0.0166667 -0.0333333 0.0333333 0.0333333 0.0333333 -0.0333333 0.0333333 0.0333333 -0.0166667 0.0333333 0.0333333 3.33067e-19 0.0333333 0.0333333 0.0166667 0.0333333 0.0333333 0.0333333 0.0333333 0.0166667 -0.0333333 0.0333333 0.0166667 -0.0166667 0.0333333 0.0166667 1.11022e-18 0.0333333 0.0166667 0.0166667 0.0333333 0.0166667 0.0333333 0.0333333 -4.44089e-18 -0.0333333 0.0333333 -4.21885e-18 -0.0166667 0.0333333 8.88178e-19 8.88178e-19 0.0333333 -1.33227e-18 0.0166667 0.0333333 3.55271e-18 0.0333333 0.0333333 -0.0166667 -0.0333333 0.0333333 -0.0166667 -0.0166667 0.0333333 -0.0166667 2.22045e-18 0.0333333 -0.0166667 0.0166667 0.0333333 -0.0166667 0.0333333 0.0333333 -0.0333333 -0.0333333 0.0333333 -0.0333333 -0.0166667 0.0333333 -0.0333333 2.22045e-18 0.0333333 -0.0333333 0.0166667 0.0333333 -0.0333333 0.0333333 </DataArray>
</Points>
<Cells>
<DataArray type="Int32" Name="connectivity" format="ascii">
68 22 3 23 218 188 63 193 218 188 63 193 219 189 64 194 219 189 64 194 220 190 65 195 220 190 65 195 221 191 66 196 221 191 66 196 222 192 67 197 222 192 67 197 97 42 7 43 69 68 23 24 223 218 193 198 223 218 193 198 224 219 194 199 224 219 194 199 225 220 195 200 225 220 195 200 226 221 196 201 226 221 196 201 227 222 197 202 227 222 197 202 96 97 43 44 70 69 24 25 228 223 198 203 228 223 198 203 229 224 199 204 229 224 199 204 230 225 200 205 230 225 200 205 231 226 201 206 231 226 201 206 232 227 202 207 232 227 202 207 95 96 44 45 71 70 25 26 233 228 203 208 233 228 203 208 234 229 204 209 234 229 204 209 235 230 205 210 235 230 205 210 236 231 206 211 236 231 206 211 237 232 207 212 237 232 207 212 94 95 45 46 72 71 26 27 238 233 208 213 238 233 208 213 239 234 209 214 239 234 209 214 240 235 210 215 240 235 210 215 241 236 211 216 241 236 211 216 242 237 212 217 242 237 212 217 93 94 46 47 8 72 27 0 118 238 213 48 118 238 213 48 119 239 214 49 119 239 214 49 120 240 215 50 120 240 215 50 121 241 216 51 121 241 216 51 122 242 217 52 122 242 217 52 28 93 47 4 73 21 22 68 243 183 188 218 243 183 188 218 244 184 189 219 244 184 189 219 245 185 190 220 245 185 190 220 246 186 191 221 246 186 191 221 247 187 192 222 247 187 192 222 102 41 42 97 74 73 68 69 248 243 218 223 248 243 218 223 249 244 219 224 249 244 219 224 250 245 220 225 250 245 220 225 251 246 221 226 251 246 221 226 252 247 222 227 252 247 222 227 101 102 97 96 75 74 69 70 253 248 223 228 253 248 223 228 254 249 224 229 254 249 224 229 255 250 225 230 255 250 225 230 256 251 226 231 256 251 226 231 257 252 227 232 257 252 227 232 100 101 96 95 76 75 70 71 258 253 228 233 258 253 228 233 259 254 229 234 259 254 229 234 260 255 230 235 260 255 230 235 261 256 231 236 261 256 231 236 262 257 232 237 262 257 232 237 99 100 95 94 77 76 71 72 263 258 233 238 263 258 233 238 264 259 234 239 264 259 234 239 265 260 235 240 265 260 235 240 266 261 236 241 266 261 236 241 267 262 237 242 267 262 237 242 98 99 94 93 9 77 72 8 123 263 238 118 123 263 238 118 124 264 239 119 124 264 239 119 125 265 240 120 125 265 240 120 126 266 241 121 126 266 241 121 127 267 242 122 127 267 242 122 29 98 93 28 78 20 21 73 268 178 183 243 268 178 183 243 269 179 184 244 269 179 184 244 270 180 185 245 270 180 185 245 271 181 186 246 271 181 186 246 272 182 187 247 272 182 187 247 107 40 41 102 79 78 73 74 273 268 243 248 273 268 243 248 274 269 244 249 274 269 244 249 275 270 245 250 275 270 245 250 276 271 246 251 276 271 246 251 277 272 247 252 277 272 247 252 106 107 102 101 80 79 74 75 278 273 248 253 278 273 248 253 279 274 249 254 279 274 249 254 280 275 250 255 280 275 250 255 281 276 251 256 281 276 251 256 282 277 252 257 282 277 252 257 105 106 101 100 81 80 75 76 283 278 253 258 283 278 253 258 284 279 254 259 284 279 254 259 285 280 255 260 285 280 255 260 286 281 256 261 286 281 256 261 287 282 257 262 287 282 257 262 104 105 100 99 82 81 76 77 288 283 258 263 288 283 258 263 289 284 259 264 289 284 259 264 290 285 260 265 290 285 260 265 291 286 261 266 291 286 261 266 292 287 262 267 292 287 262 267 103 104 99 98 10 82 77 9 128 288 263 123 128 288 263 123 129 289 264 124 129 289 264 124 130 290 265 125 130 290 265 125 131 291 266 126 131 291 266 126 132 292 267 127 132 292 267 127 30 103 98 29 83 19 20 78 293 173 178 268 293 173 178 268 294 174 179 269 294 174 179 269 295 175 180 270 295 175 180 270 296 176 181 271 296 176 181 271 297 177 182 272 297 177 182 272 112 39 40 107 84 83 78 79 298 293 268 273 298 293 268 273 299 294 269 274 299 294 269 274 300 295 270 275 300 295 270 275 301 296 271 276 301 296 271 276 302 297 272 277 302 297 272 277 111 112 107 106 85 84 79 80 303 298 273 278 303 298 273 278 304 299 274 279 304 299 274 279 305 300 275 280 305 300 275 280 306 301 276 281 306 301 276 281 307 302 277 282 307 302 277 282 110 111 106 105 86 85 80 81 308 303 278 283 308 303 278 283 309 304 279 284 309 304 279 284 310 305 280 285 310 305 280 285 311 306 281 286 311 306 281 286 312 307 282 287 312 307 282 287 109 110 105 104 87 86 81 82 313 308 283 288 313 308 283 288 314 309 284 289 314 309 284 289 315 310 285 290 315 310 285 290 316 311 286 291 316 311 286 291 317 312 287 292 317 312 287 292 108 109 104 103 11 87 82 10 133 313 288 128 133 313 288 128 134 314 289 129 134 314 289 129 135 315 290 130 135 315 290 130 136 316 291 131 136 316 291 131 137 317 292 132 137 317 292 132 31 108 103 30 88 18 19 83 318 168 173 293 318 168 173 293 319 169 174 294 319 169 174 294 320 170 175 295 320 170 175 295 321 171 176 296 321 171 176 296 322 172 177 297 322 172 177 297 117 38 39 112 89 88 83 84 323 318 293 298 323 318 293 298 324 319 294 299 324 319 294 299 325 320 295 300 325 320 295 300 326 321 296 301 326 321 296 301 327 322 297 302 327 322 297 302 116 117 112 111 90 89 84 85 328 323 298 303 328 323 298 303 329 324 299 304 329 324 299 304 330 325 300 305 330 325 300 305 331 326 301 306 331 326 301 306 332 327 302 307 332 327 302 307 115 116 111 110 91 90 85 86 333 328 303 308 333 328 303 308 334 329 304 309 334 329 304 309 335 330 305 310 335 330 305 310 336 331 306 311 336 331 306 311 337 332 307 312 337 332 307 312 114 115 110 109 92 91 86 87 338 333 308 313 338 333 308 313 339 334 309 314 339 334 309 314 340 335 310 315 340 335 310 315 341 336 311 316 341 336 311 316 342 337 312 317 342 337 312 317 113 114 109 108 12 92 87 11 138 338 313 133 138 338 313 133 139 339 314 134 139 339 314 134 140 340 315 135 140 340 315 135 141 341 316 136 141 341 316 136 142 342 317 137 142 342 317 137 32 113 108 31 17 2 18 88 163 58 168 318 163 58 168 318 164 59 169 319 164 59 169 319 165 60 170 320 165 60 170 320 166 61 171 321 166 61 171 321 167 62 172 322 167 62 172 322 37 6 38 117 16 17 88 89 158 163 318 323 158 163 318 323 159 164 319 324 159 164 319 324 160 165 320 325 160 165 320 325 161 166 321 326 161 166 321 326 162 167 322 327 162 167 322 327 36 37 117 116 15 16 89 90 153 158 323 328 153 158 323 328 154 159 324 329 154 159 324 329 155 160 325 330 155 160 325 330 156 161 326 331 156 161 326 331 157 162 327 332 157 162 327 332 35 36 116 115 14 15 90 91 148 153 328 333 148 153 328 333 149 154 329 334 149 154 329 334 150 155 330 335 150 155 330 335 151 156 331 336 151 156 331 336 152 157 332 337 152 157 332 337 34 35 115 114 13 14 91 92 143 148 333 338 143 148 333 338 144 149 334 339 144 149 334 339 145 150 335 340 145 150 335 340 146 151 336 341 146 151 336 341 147 152 337 342 147 152 337 342 33 34 114 113 1 13 92 12 53 143 338 138 53 143 338 138 54 144 339 139 54 144 339 139 55 145 340 140 55 145 340 140 56 146 341 141 56 146 341 141 57 147 342 142 57 147 342 142 5 33 113 32 </DataArray>
<DataArray type="Int32" Name="offsets" format="ascii">
8 16 24 32 40 48 56 64 72 80 88 96 104 112 120 128 136 144 152 160 168 176 184 192 200 208 216 224 232 240 248 256 264 272 280 288 296 304 312 320 328 336 344 352 360 368 376 384 392 400 408 416 424 432 440 448 456 464 472 480 488 496 504 512 520 528 536 544 552 560 568 576 584 592 600 608 616 624 632 640 648 656 664 672 680 688 696 704 712 720 728 736 744 752 760 768 776 784 792 800 808 816 824 832 840 848 856 864 872 880 888 896 904 912 920 928 936 944 952 960 968 976 984 992 1000 1008 1016 1024 1032 1040 1048 1056 1064 1072 1080 1088 1096 1104 1112 1120 1128 1136 1144 1152 1160 1168 1176 1184 1192 1200 1208 1216 1224 1232 1240 1248 1256 1264 1272 1280 1288 1296 1304 1312 1320 1328 1336 1344 1352 1360 1368 1376 1384 1392 1400 1408 1416 1424 1432 1440 1448 1456 1464 1472 1480 1488 1496 1504 1512 1520 1528 1536 1544 1552 1560 1568 1576 1584 1592 1600 1608 1616 1624 1632 1640 1648 1656 1664 1672 1680 1688 1696 1704 1712 1720 1728 </DataArray>
<DataArray type="UInt8" Name="types" format="ascii">
12 12 12 12 12 12 12 12 12 12 12 12 12 12 12 12 12 12 12 12 12 12 12 12 12 12 12 12 12 12 12 12 12 12 12 12 12 12 12 12 12 12 12 12 12 12 12 12 12 12 12 12 12 12 12 12 12 12 12 12 12 12 12 12 12 12 12 12 12 12 12 12 12 12 12 12 12 12 12 12 12 12 12 12 12 12 12 12 12 12 12 12 12 12 12 12 12 12 12 12 12 12 12 12 12 12 12 12 12 12 12 12 12 12 12 12 12 12 12 12 12 12 12 12 12 12 12 12 12 12 12 12 12 12 12 12 12 12 12 12 12 12 12 12 12 12 12 12 12 12 12 12 12 12 12 12 12 12 12 12 12 12 12 12 12 12 12 12 12 12 12 12 12 12 12 12 12 12 12 12 12 12 12 12 12 12 12 12 12 12 12 12 12 12 12 12 12 12 12 12 12 12 12 12 12 12 12 12 12 12 12 12 12 12 12 12 </DataArray>
</Cells>
<CellData Scalars="scalars">
<DataArray type="Float32" Name="number_density" format="ascii">
7.56e+15 8.208e+15 7.776e+15 7.56e+15 8.424e+15 9.072e+15 7.344e+15 7.992e+15 8.424e+15 8.856e+15 8.856e+15 9.72e+15 9.072e+15 9.504e+15 6.696e+15 5.832e+15 7.992e+15 1.1016e+16 8.64e+15 1.0152e+16 6.264e+15 8.64e+15 9.504e+15 9.504e+15 9.072e+15 6.912e+15 1.1448e+16 1.0152e+16 9.504e+15 1.0584e+16 9.72e+15 7.344e+15 8.856e+15 7.56e+15 8.208e+15 7.344e+15 7.56e+15 8.208e+15 1.0584e+16 9.936e+15 9.504e+15 8.424e+15 6.48e+15 7.992e+15 1.1448e+16 1.296e+16 1.3824e+16 1.1016e+16 6.912e+15 9.72e+15 9.504e+15 1.3824e+16 1.2312e+16 9.72e+15 7.344e+15 1.1232e+16 1.2096e+16 1.2528e+16 1.188e+16 9.072e+15 7.128e+15 8.424e+15 1.1448e+16 1.0152e+16 9.072e+15 1.1232e+16 1.0368e+16 9.936e+15 1.1232e+16 1.0152e+16 7.992e+15 8.424e+15 5.616e+15 1.0152e+16 1.0368e+16 1.2096e+16 1.1448e+16 1.0368e+16 7.56e+15 8.856e+15 1.296e+16 1.5984e+16 1.404e+16 1.0368e+16 7.128e+15 1.0584e+16 1.4904e+16 2.376e+16 1.6416e+16 1.3392e+16 6.696e+15 9.936e+15 1.6848e+16 1.9656e+16 1.7712e+16 9.504e+15 6.696e+15 8.64e+15 1.1016e+16 1.0152e+16 1.3608e+16 8.64e+15 6.048e+15 8.424e+15 8.64e+15 7.56e+15 1.0584e+16 9.936e+15 8.64e+15 9.72e+15 9.288e+15 1.1448e+16 1.08e+16 1.2528e+16 7.776e+15 9.936e+15 1.1232e+16 1.4256e+16 1.2528e+16 1.3392e+16 6.912e+15 1.0152e+16 1.6848e+16 1.8576e+16 1.944e+16 9.72e+15 7.344e+15 7.776e+15 1.3392e+16 1.6632e+16 1.3608e+16 1.1232e+16 9.72e+15 9.504e+15 1.0152e+16 1.2096e+16 1.1232e+16 1.08e+16 6.696e+15 7.992e+15 7.776e+15 8.64e+15 6.264e+15 9.72e+15 7.992e+15 8.856e+15 1.08e+16 1.2312e+16 8.856e+15 9.72e+15 7.56e+15 1.1664e+16 1.2312e+16 1.1016e+16 1.296e+16 9.504e+15 8.208e+15 1.3176e+16 1.0368e+16 1.2528e+16 1.296e+16 9.936e+15 9.072e+15 8.856e+15 1.5768e+16 1.0584e+16 1.2096e+16 1.1448e+16 7.56e+15 9.72e+15 8.856e+15 7.992e+15 8.208e+15 1.0152e+16 8.424e+15 7.992e+15 7.344e+15 1.0584e+16 9.072e+15 9.72e+15 9.72e+15 8.424e+15 1.1016e+16 9.288e+15 1.0152e+16 9.936e+15 7.56e+15 9.072e+15 1.08e+16 8.424e+15 1.08e+16 9.288e+15 9.072e+15 7.776e+15 1.0368e+16 1.188e+16 9.72e+15 1.0584e+16 6.912e+15 6.264e+15 7.128e+15 7.776e+15 8.424e+15 1.0368e+16 8.856e+15 9.288e+15 7.56e+15 6.912e+15 9.72e+15 9.72e+15 9.72e+15 6.912e+15 7.776e+15 8.856e+15 9.936e+15 1.08e+16 </DataArray>
<DataArray type="Float32" Name="potential" format="ascii">
0 0 0 0 0 0 0 0 0 0 0 0 0 0 0 0 0 0 0 0 0 0 0 0 0 0 0 0 0 0 0 0 0 0 0 0 0 0 0 0 0 0 0 0 0 0 0 0 0 0 0 0 0 0 0 0 0 0 0 0 0 0 0 0 0 0 0 0 0 0 0 0 0 0 0 0 0 0 0 0 0 0 0 0 0 0 0 0 0 0 0 0 0 0 0 0 0 0 0 0 0 0 0 0 0 0 0 0 0 0 0 0 0 0 0 0 0 0 0 0 0 0 0 0 0 0 0 0 0 0 0 0 0 0 0 0 0 0 0 0 0 0 0 0 0 0 0 0 0 0 0 0 0 0 0 0 0 0 0 0 0 0 0 0 0 0 0 0 0 0 0 0 0 0 0 0 0 0 0 0 0 0 0 0 0 0 0 0 0 0 0 0 0 0 0 0 0 0 0 0 0 0 0 0 0 0 0 0 0 0 0 0 0 0 0 0 </DataArray>
<DataArray type="Float32" Name="temperature" format="ascii">
233.812 328.193 279.043 273.071 314.464 281.247 229.484 279.349 372.129 376.569 339.14 332.698 261.684 321.899 328.225 333.4 367.682 281.195 255.778 300.772 351.825 364.48 253.825 328.484 205.502 224.669 272.192 224.031 353.441 326.089 284.976 327.577 323.345 320.181 269.506 275.242 225.339 257.51 343.047 321.005 270.012 318.582 245.733 385.422 371.079 364.347 352.61 313.601 286.288 257.605 444.522 414.825 347.687 289.126 277.752 285.603 351.566 396.022 336.623 309.54 385.61 273.83 292.912 255.661 325.311 291.48 268.295 284.638 278.982 361.342 183.133 250.355 232.657 303.981 286.286 377.13 324.406 363.617 298.229 263.65 424.362 511.408 346.918 260.946 345.775 418.52 429.429 572.732 400.903 356.875 282.482 343.759 421.916 604.503 411.869 356.548 308.11 283.619 348.736 376.568 298.456 215.271 379.295 258.149 286.37 319.59 362.183 318.292 197.652 234.627 399.371 345.283 321.65 241.048 217.941 336.445 369.52 448.195 411.698 293.693 298.566 335.767 442.163 588.389 449.383 314.36 349.697 266.345 430.608 482.348 467.244 274.51 276.079 412.038 369.575 308.719 329.464 289.011 294.695 301.121 326.055 257.045 247.481 288.733 272.801 296.214 329.444 292.388 276.541 239.097 267.685 295.646 328.881 345.248 342.076 291.989 310.003 280.429 351.527 347.424 343.718 326.499 317.104 338.93 337.805 405.441 350.097 301.482 289.227 308.675 335.342 270.627 312.489 298.545 288.341 245.535 276.3 301.526 251.955 247.383 308.573 265.616 320.814 293.804 284.101 332.635 309.249 318.714 284.744 310.065 280.285 302.415 233.725 288.071 259.992 307.108 272.068 326.822 226.221 283.582 263.877 301.005 223.235 272.339 290.912 260.979 262.997 268.447 254 288.463 271.778 268.598 285.486 299.502 260.093 227.963 </DataArray>
<DataArray type="Float32" Name="velocity" format="ascii">
123.404 211.98 171.278 221.111 99.3874 58.1158 225.773 230.34 373.332 325.464 126.281 98.9239 262.976 299.789 425.276 255.434 172.209 100.708 239.733 337.76 430.562 328.157 225.813 122.636 123.811 185.704 245.469 248.194 171.717 192.058 78.1228 101.261 183.33 157.296 148.28 142.429 168.355 346.055 303.349 245.88 152.374 74.4798 258.798 402.025 416.887 380.135 249.903 144.572 334.665 547.762 678.309 517.009 279.052 145.804 345.36 482.941 597.524 522.531 298.421 218.576 203.017 470.132 425.549 424.459 254.755 170.377 120.292 213.983 298.2 256.539 132.813 51.6772 286.48 385.417 397.95 363.674 123.676 106.002 351.926 526.508 609.679 446.628 184.14 99.7539 512.005 718.913 868.507 627.285 202.709 180.71 415.137 709.145 826.202 620.375 332.794 158.497 274.191 442.651 591.427 504.653 295.713 236.561 172.955 355.019 327.813 179.568 192.388 102.981 247.434 330.835 417.098 309.519 97.9651 77.8599 311.474 524.554 672.8 362.997 128.683 62.7888 468.901 723.587 827.663 534.673 143.186 93.8521 505.997 686.238 792.701 682.472 349.467 207.205 378.756 589.239 646.789 540.926 335.93 206.49 205.822 298.87 460.56 391.368 163.505 119.732 173.849 240.354 330.289 155.005 38.4059 72.5276 209.822 438.14 414.386 335.755 186.624 101.804 333.774 515.389 650.516 427.844 185.571 117.111 340.618 509.819 652.82 542.092 311.695 190.071 175.23 390.288 538.605 461.656 286.976 213.969 175.834 268.628 348.574 269.165 214.89 114.041 47.6818 179.109 173.599 146.466 51.0989 103.828 155.273 199.645 315.061 226.044 124.344 53.2636 169.803 336.958 361.585 303.733 219.092 123.276 287.019 425.284 391.463 322.054 234.01 123.124 127.617 277.328 322.383 317.315 198.755 99.8227 58.6839 166.03 252.104 142.836 124.722 125.84 </DataArray>
<DataArray type="Float32" Name="E_field" format="ascii">
0 0 0 0 0 0 0 0 0 0 0 0 0 0 0 0 0 0 0 0 0 0 0 0 0 0 0 0 0 0 0 0 0 0 0 0 0 0 0 0 0 0 0 0 0 0 0 0 0 0 0 0 0 0 0 0 0 0 0 0 0 0 0 0 0 0 0 0 0 0 0 0 0 0 0 0 0 0 0 0 0 0 0 0 0 0 0 0 0 0 0 0 0 0 0 0 0 0 0 0 0 0 0 0 0 0 0 0 0 0 0 0 0 0 0 0 0 0 0 0 0 0 0 0 0 0 0 0 0 0 0 0 0 0 0 0 0 0 0 0 0 0 0 0 0 0 0 0 0 0 0 0 0 0 0 0 0 0 0 0 0 0 0 0 0 0 0 0 0 0 0 0 0 0 0 0 0 0 0 0 0 0 0 0 0 0 0 0 0 0 0 0 0 0 0 0 0 0 0 0 0 0 0 0 0 0 0 0 0 0 0 0 0 0 0 0 </DataArray>
</CellData>
<PointData Scalars="number_density">
<DataArray type="Float32" Name="number_density" format="ascii">
9.72e+15 9.72e+15 9.72e+15 7.56e+15 7.344e+15 1.08e+16 9.936e+15 9.072e+15 1.0044e+16 8.208e+15 6.372e+15 7.56e+15 9.072e+15 9.288e+15 7.884e+15 7.992e+15 8.316e+15 8.64e+15 8.856e+15 8.316e+15 7.128e+15 6.588e+15 7.56e+15 7.452e+15 8.208e+15 8.856e+15 8.856e+15 9.396e+15 7.884e+15 9.18e+15 9.828e+15 9.72e+15 1.026e+16 1.026e+16 1.0044e+16 1.0476e+16 9.936e+15 9.612e+15 9.828e+15 1.1124e+16 1.1448e+16 9.396e+15 8.748e+15 9.396e+15 1.0368e+16 1.026e+16 1.0044e+16 8.964e+15 8.532e+15 8.1e+15 8.208e+15 7.884e+15 7.776e+15 8.316e+15 7.344e+15 8.316e+15 9.396e+15 1.0368e+16 9.072e+15 9.72e+15 1.0152e+16 9.72e+15 1.0044e+16 7.884e+15 7.992e+15 7.668e+15 7.992e+15 8.748e+15 7.236e+15 7.452e+15 7.992e+15 8.046e+15 9.072e+15 6.804e+15 7.02e+15 7.02e+15 6.966e+15 7.56e+15 7.398e+15 7.344e+15 7.02e+15 7.614e+15 7.29e+15 7.992e+15 7.614e+15 7.884e+15 8.424e+15 8.1e+15 8.208e+15 8.1e+15 8.316e+15 8.1e+15 8.64e+15 9.396e+15 1.0098e+16 9.828e+15 1.0368e+16 9.558e+15 9.558e+15 9.612e+15 1.0422e+16 1.1124e+16 1.0044e+16 9.774e+15 1.0044e+16 1.0962e+16 1.1718e+16 1.1664e+16 1.0098e+16 1.0908e+16 1.0584e+16 1.0638e+16 1.1286e+16 1.0098e+16 1.0422e+16 1.0584e+16 9.828e+15 9.612e+15 9.342e+15 9.342e+15 9.45e+15 8.478e+15 7.992e+15 8.694e+15 9.558e+15 9.396e+15 9.072e+15 9.234e+15 7.29e+15 8.208e+15 8.154e+15 8.262e+15 9.126e+15 7.776e+15 7.776e+15 8.586e+15 8.64e+15 8.694e+15 8.262e+15 7.506e+15 8.64e+15 9.612e+15 9.882e+15 8.694e+15 7.884e+15 7.776e+15 8.856e+15 1.0044e+16 7.83e+15 7.56e+15 7.344e+15 8.208e+15 9.558e+15 7.506e+15 7.884e+15 9.288e+15 9.45e+15 9.774e+15 8.37e+15 9.504e+15 1.0368e+16 1.0206e+16 1.0098e+16 8.694e+15 9.828e+15 9.882e+15 9.666e+15 1.0044e+16 8.748e+15 9.774e+15 1.0854e+16 1.0152e+16 9.666e+15 8.802e+15 9.666e+15 1.0962e+16 1.0854e+16 1.0476e+16 8.532e+15 9.882e+15 1.08e+16 1.1448e+16 1.1286e+16 7.884e+15 9.828e+15 1.0746e+16 1.0746e+16 9.936e+15 7.884e+15 8.694e+15 8.964e+15 8.856e+15 8.856e+15 7.776e+15 8.1e+15 8.154e+15 8.424e+15 9.018e+15 8.478e+15 8.154e+15 7.452e+15 7.884e+15 9.396e+15 9.342e+15 8.154e+15 6.858e+15 7.992e+15 9.504e+15 8.694e+15 8.694e+15 9.126e+15 9.45e+15 9.774e+15 8.262e+15 8.64e+15 9.504e+15 8.856e+15 8.91e+15 7.668e+15 8.829e+15 9.693e+15 9.99e+15 9.855e+15 8.127e+15 8.91e+15 9.693e+15 1.0557e+16 1.0557e+16 9.072e+15 9.396e+15 9.423e+15 1.0314e+16 1.0125e+16 8.613e+15 9.747e+15 1.0341e+16 1.0179e+16 1.0044e+16 8.613e+15 9.45e+15 1.0125e+16 9.099e+15 9.045e+15 7.803e+15 1.0071e+16 1.2042e+16 1.2474e+16 1.1124e+16 8.154e+15 1.0746e+16 1.4418e+16 1.539e+16 1.2636e+16 8.694e+15 1.1853e+16 1.539e+16 1.6011e+16 1.2501e+16 8.262e+15 1.1205e+16 1.2987e+16 1.3095e+16 1.134e+16 8.208e+15 9.72e+15 1.0044e+16 9.909e+15 9.936e+15 8.532e+15 1.0314e+16 1.2204e+16 1.2825e+16 1.1934e+16 8.613e+15 1.1934e+16 1.6065e+16 1.6875e+16 1.3662e+16 8.316e+15 1.2555e+16 1.7577e+16 1.8225e+16 1.3878e+16 8.289e+15 1.0908e+16 1.3743e+16 1.4337e+16 1.2042e+16 7.965e+15 9.018e+15 9.504e+15 1.0017e+16 1.0098e+16 9.018e+15 1.0476e+16 1.1583e+16 1.1772e+16 1.1286e+16 9.423e+15 1.1961e+16 1.3392e+16 1.4283e+16 1.2555e+16 8.937e+15 1.2042e+16 1.4337e+16 1.4553e+16 1.2555e+16 8.694e+15 1.0503e+16 1.1934e+16 1.1556e+16 1.1097e+16 8.451e+15 8.667e+15 9.18e+15 9.261e+15 9.396e+15 8.856e+15 1.0368e+16 1.0746e+16 1.0476e+16 1.0152e+16 9.261e+15 1.0692e+16 1.0962e+16 1.1286e+16 1.0719e+16 8.667e+15 9.963e+15 1.08e+16 1.0746e+16 1.0692e+16 8.316e+15 9.18e+15 9.072e+15 8.964e+15 1.0017e+16 8.559e+15 8.181e+15 8.235e+15 8.91e+15 9.666e+15 </DataArray>
<DataArray type="Float32" Name="potential" format="ascii">
0 0 0 0 0 0 0 0 0 0 0 0 0 0 0 0 0 0 0 0 0 0 0 0 0 0 0 0 0 0 0 0 0 0 0 0 0 0 0 0 0 0 0 0 0 0 0 0 0 0 0 0 0 0 0 0 0 0 0 0 0 0 0 0 0 0 0 0 0 0 0 0 0 0 0 0 0 0 0 0 0 0 0 0 0 0 0 0 0 0 0 0 0 0 0 0 0 0 0 0 0 0 0 0 0 0 0 0 0 0 0 0 0 0 0 0 0 0 0 0 0 0 0 0 0 0 0 0 0 0 0 0 0 0 0 0 0 0 0 0 0 0 0 0 0 0 0 0 0 0 0 0 0 0 0 0 0 0 0 0 0 0 0 0 0 0 0 0 0 0 0 0 0 0 0 0 0 0 0 0 0 0 0 0 0 0 0 0 0 0 0 0 0 0 0 0 0 0 0 0 0 0 0 0 0 0 0 0 0 0 0 0 0 0 0 0 0 0 0 0 0 0 0 0 0 0 0 0 0 0 0 0 0 0 0 0 0 0 0 0 0 0 0 0 0 0 0 0 0 0 0 0 0 0 0 0 0 0 0 0 0 0 0 0 0 0 0 0 0 0 0 0 0 0 0 0 0 0 0 0 0 0 0 0 0 0 0 0 0 0 0 0 0 0 0 0 0 0 0 0 0 0 0 0 0 0 0 0 0 0 0 0 0 0 0 0 0 0 0 0 0 0 0 0 0 0 0 0 0 0 0 0 0 0 0 0 0 0 0 0 0 0 0 </DataArray>
<DataArray type="Float32" Name="temperature" format="ascii">