<VTKFile type="UnstructuredGrid" version="0.1" byte_order="LittleEndian">
<UnstructuredGrid>
<Piece NumberOfPoints="343" NumberOfCells="216">
<Points>
<DataArray type="Float32" NumberOfComponents="3" format="ascii">
-0.05 -0.05 -0.05 0.05 -0.05 -0.05 0.05 0.05 -0.05 -0.05 0.05 -0.05 -0.05 -0.05 0.05 0.05 -0.05 0.05 0.05 0.05 0.05 -0.05 0.05 0.05 -0.0333333 -0.05 -0.05 -0.0166667 -0.05 -0.05 0 -0.05 -0.05 0.0166667 -0.05 -0.05 0.0333333 -0.05 -0.05 0.05 -0.0333333 -0.05 0.05 -0.0166667 -0.05 0.05 0 -0.05 0.05 0.0166667 -0.05 0.05 0.0333333 -0.05 0.0333333 0.05 -0.05 0.0166667 0.05 -0.05 0 0.05 -0.05 -0.0166667 0.05 -0.05 -0.0333333 0.05 -0.05 -0.05 0.0333333 -0.05 -0.05 0.0166667 -0.05 -0.05 0 -0.05 -0.05 -0.0166667 -0.05 -0.05 -0.0333333 -0.05 -0.0333333 -0.05 0.05 -0.0166667 -0.05 0.05 0 -0.05 0.05 0.0166667 -0.05 0.05 0.0333333 -0.05 0.05 0.05 -0.0333333 0.05 0.05 -0.0166667 0.05 0.05 0 0.05 0.05 0.0166667 0.05 0.05 0.0333333 0.05 0.0333333 0.05 0.05 0.0166667 0.05 0.05 0 0.05 0.05 -0.0166667 0.05 0.05 -0.0333333 0.05 0.05 -0.05 0.0333333 0.05 -0.05 0.0166667 0.05 -0.05 0 0.05 -0.05 -0.0166667 0.05 -0.05 -0.0333333 0.05 -0.05 -0.05 -0.0333333 -0.05 -0.05 -0.0166667 -0.05 -0.05 0 -0.05 -0.05 0.0166667 -0.05 -0.05 0.0333333 0.05 -0.05 -0.0333333 0.05 -0.05 -0.0166667 0.05 -0.05 0 0.05 -0.05 0.0166667 0.05 -0.05 0.0333333 0.05 0.05 -0.0333333 0.05 0.05 -0.0166667 0.05 0.05 0 0.05 0.05 0.0166667 0.05 0.05 0.0333333 -0.05 0.05 -0.0333333 -0.05 0.05 -0.0166667 -0.05 0.05 0 -0.05 0.05 0.0166667 -0.05 0.05 0.0333333 -0.0333333 0.0333333 -0.05 -0.0333333 0.0166667 -0.05 -0.0333333 -3.55271e-18 -0.05 -0.0333333 -0.0166667 -0.05 -0.0333333 -0.0333333 -0.05 -0.0166667 0.0333333 -0.05 -0.0166667 0.0166667 -0.05 -0.0166667 -7.10543e-18 -0.05 -0.0166667 -0.0166667 -0.05 -0.0166667 -0.0333333 -0.05 1.77636e-18 0.0333333 -0.05 5.32907e-18 0.0166667 -0.05 3.55271e-18 -1.77636e-18 -0.05 7.10543e-18 -0.0166667 -0.05 3.55271e-18 -0.0333333 -0.05 0.0166667 0.0333333 -0.05 0.0166667 0.0166667 -0.05 0.0166667 -7.10543e-18 -0.05 0.0166667 -0.0166667 -0.05 0.0166667 -0.0333333 -0.05 0.0333333 0.0333333 -0.05 0.0333333 0.0166667 -0.05 0.0333333 -1.77636e-18 -0.05 0.0333333 -0.0166667 -0.05 0.0333333 -0.0333333 -0.05 -0.0333333 -0.0333333 0.05 -0.0333333 -0.0166667 0.05 -0.0333333 0 0.05 -0.0333333 0.0166667 0.05 -0.0333333 0.0333333 0.05 -0.0166667 -0.0333333 0.05 -0.0166667 -0.0166667 0.05 -0.0166667 0 0.05 -0.0166667 0.0166667 0.05 -0.0166667 0.0333333 0.05 0 -0.0333333 0.05 0 -0.0166667 0.05 0 0 0.05 0 0.0166667 0.05 0 0.0333333 0.05 0.0166667 -0.0333333 0.05 0.0166667 -0.0166667 0.05 0.0166667 0 0.05 0.0166667 0.0166667 0.05 0.0166667 0.0333333 0.05 0.0333333 -0.0333333 0.05 0.0333333 -0.0166667 0.05 0.0333333 1.77636e-18 0.05 0.0333333 0.0166667 0.05 0.0333333 0.0333333 0.05 -0.0333333 -0.05 -0.0333333 -0.0333333 -0.05 -0.0166667 -0.0333333 -0.05 0 -0.0333333 -0.05 0.0166667 -0.0333333 -0.05 0.0333333 -0.0166667 -0.05 -0.0333333 -0.0166667 -0.05 -0.0166667 -0.0166667 -0.05 0 -0.0166667 -0.05 0.0166667 -0.0166667 -0.05 0.0333333 0 -0.05 -0.0333333 0 -0.05 -0.0166667 0 -0.05 0 0 -0.05 0.0166667 0 -0.05 0.0333333 0.0166667 -0.05 -0.0333333 0.0166667 -0.05 -0.0166667 0.0166667 -0.05 0 0.0166667 -0.05 0.0166667 0.0166667 -0.05 0.0333333 0.0333333 -0.05 -0.0333333 0.0333333 -0.05 -0.0166667 0.0333333 -0.05 1.77636e-18 0.0333333 -0.05 0.0166667 0.0333333 -0.05 0.0333333 0.05 -0.0333333 -0.0333333 0.05 -0.0333333 -0.0166667 0.05 -0.0333333 0 0.05 -0.0333333 0.0166667 0.05 -0.0333333 0.0333333 0.05 -0.0166667 -0.0333333 0.05 -0.0166667 -0.0166667 0.05 -0.0166667 0 0.05 -0.0166667 0.0166667 0.05 -0.0166667 0.0333333 0.05 0 -0.0333333 0.05 0 -0.0166667 0.05 0 0 0.05 0 0.0166667 0.05 0 0.0333333 0.05 0.0166667 -0.0333333 0.05 0.0166667 -0.0166667 0.05 0.0166667 0 0.05 0.0166667 0.0166667 0.05 0.0166667 0.0333333 0.05 0.0333333 -0.0333333 0.05 0.0333333 -0.0166667 0.05 0.0333333 1.77636e-18 0.05 0.0333333 0.0166667 0.05 0.0333333 0.0333333 0.0333333 0.05 -0.0333333 0.0333333 0.05 -0.0166667 0.0333333 0.05 0 0.0333333 0.05 0.0166667 0.0333333 0.05 0.0333333 0.0166667 0.05 -0.0333333 0.0166667 0.05 -0.0166667 0.0166667 0.05 0 0.0166667 0.05 0.0166667 0.0166667 0.05 0.0333333 0 0.05 -0.0333333 0 0.05 -0.0166667 0 0.05 0 0 0.05 0.0166667 0 0.05 0.0333333 -0.0166667 0.05 -0.0333333 -0.0166667 0.05 -0.0166667 -0.0166667 0.05 0 -0.0166667 0.05 0.0166667 -0.0166667 0.05 0.0333333 -0.0333333 0.05 -0.0333333 -0.0333333 0.05 -0.0166667 -0.0333333 0.05 1.77636e-18 -0.0333333 0.05 0.0166667 -0.0333333 0.05 0.0333333 -0.05 0.0333333 -0.0333333 -0.05 0.0333333 -0.0166667 -0.05 0.0333333 0 -0.05 0.0333333 0.0166667 -0.05 0.0333333 0.0333333 -0.05 0.0166667 -0.0333333 -0.05 0.0166667 -0.0166667 -0.05 0.0166667 0 -0.05 0.0166667 0.0166667 -0.05 0.0166667 0.0333333 -0.05 0 -0.0333333 -0.05 0 -0.0166667 -0.05 0 0 -0.05 0 0.0166667 -0.05 0 0.0333333 -0.05 -0.0166667 -0.0333333 -0.05 -0.0166667 -0.0166667 -0.05 -0.0166667 0 -0.05 -0.0166667 0.0166667 -0.05 -0.0166667 0.0333333 -0.05 -0.0333333 -0.0333333 -0.05 -0.0333333 -0.0166667 -0.05 -0.0333333 1.77636e-18 -0.05 -0.0333333 0.0166667 -0.05 -0.0333333 0.0333333 -0.0333333 0.0333333 -0.0333333 -0.0333333 0.0333333 -0.0166667 -0.0333333 0.0333333 4.44089e-19 -0.0333333 0.0333333 0.0166667 -0.0333333 0.0333333 0.0333333 -0.0333333 0.0166667 -0.0333333 -0.0333333 0.0166667 -0.0166667 -0.0333333 0.0166667 -4.44089e-18 -0.0333333 0.0166667 0.0166667 -0.0333333 0.0166667 0.0333333 -0.0333333 -6.66134e-18 -0.0333333 -0.0333333 -9.76996e-18 -0.0166667 -0.0333333 -1.77636e-18 -1.77636e-18 -0.0333333 -1.77636e-18 0.0166667 -0.0333333 3.55271e-18 0.0333333 -0.0333333 -0.0166667 -0.0333333 -0.0333333 -0.0166667 -0.0166667 -0.0333333 -0.0166667 1.77636e-18 -0.0333333 -0.0166667 0.0166667 -0.0333333 -0.0166667 0.0333333 -0.0333333 -0.0333333 -0.0333333 -0.0333333 -0.0333333 -0.0166667 -0.0333333 -0.0333333 0 -0.0333333 -0.0333333 0.0166667 -0.0333333 -0.0333333 0.0333333 -0.0166667 0.0333333 -0.0333333 -0.0166667 0.0333333 -0.0166667 -0.0166667 0.0333333 2.66454e-18 -0.0166667 0.0333333 0.0166667 -0.0166667 0.0333333 0.0333333 -0.0166667 0.0166667 -0.0333333 -0.0166667 0.0166667 -0.0166667 -0.0166667 0.0166667 -1.77636e-18 -0.0166667 0.0166667 0.0166667 -0.0166667 0.0166667 0.0333333 -0.0166667 -1.06581e-17 -0.0333333 -0.0166667 -1.15463e-17 -0.0166667 -0.0166667 -3.55271e-18 0 -0.0166667 -8.88178e-18 0.0166667 -0.0166667 -1.77636e-18 0.0333333 -0.0166667 -0.0166667 -0.0333333 -0.0166667 -0.0166667 -0.0166667 -0.0166667 -0.0166667 3.55271e-18 -0.0166667 -0.0166667 0.0166667 -0.0166667 -0.0166667 0.0333333 -0.0166667 -0.0333333 -0.0333333 -0.0166667 -0.0333333 -0.0166667 -0.0166667 -0.0333333 0 -0.0166667 -0.0333333 0.0166667 -0.0166667 -0.0333333 0.0333333 3.44169e-18 0.0333333 -0.0333333 1.02141e-17 0.0333333 -0.0166667 2.66454e-18 0.0333333 -8.88178e-19 6.21725e-18 0.0333333 0.0166667 1.33227e-18 0.0333333 0.0333333 7.99361e-18 0.0166667 -0.0333333 8.43769e-18 0.0166667 -0.0166667 8.88178e-19 0.0166667 8.88178e-19 7.99361e-18 0.0166667 0.0166667 3.55271e-18 0.0166667 0.0333333 3.55271e-18 -1.77636e-18 -0.0333333 9.76996e-18 -9.76996e-18 -0.0166667 0 -8.88178e-19 -8.88178e-19 8.88178e-18 -8.88178e-18 0.0166667 1.77636e-18 -1.77636e-18 0.0333333 1.02141e-17 -0.0166667 -0.0333333 1.24345e-17 -0.0166667 -0.0166667 3.55271e-18 -0.0166667 -1.77636e-18 8.88178e-18 -0.0166667 0.0166667 3.55271e-18 -0.0166667 0.0333333 5.77316e-18 -0.0333333 -0.0333333 4.44089e-18 -0.0333333 -0.0166667 1.77636e-18 -0.0333333 1.77636e-18 5.32907e-18 -0.0333333 0.0166667 0 -0.0333333 0.0333333 0.0166667 0.0333333 -0.0333333 0.0166667 0.0333333 -0.0166667 0.0166667 0.0333333 -2.66454e-18 0.0166667 0.0333333 0.0166667 0.0166667 0.0333333 0.0333333 0.0166667 0.0166667 -0.0333333 0.0166667 0.0166667 -0.0166667 0.0166667 0.0166667 3.10862e-18 0.0166667 0.0166667 0.0166667 0.0166667 0.0166667 0.0333333 0.0166667 -1.24345e-17 -0.0333333 0.0166667 -1.37668e-17 -0.0166667 0.0166667 -3.55271e-18 -1.77636e-18 0.0166667 -6.21725e-18 0.0166667 0.0166667 -8.88178e-19 0.0333333 0.0166667 -0.0166667 -0.0333333 0.0166667 -0.0166667 -0.0166667 0.0166667 -0.0166667 2.66454e-18 0.0166667 -0.0166667 0.0166667 0.0166667 -0.0166667 0.0333333 0.0166667 -0.0333333 -0.0333333 0.0166667 -0.0333333 -0.0166667 0.0166667 -0.0333333 0 0.0166667 -0.0333333 0.0166667 0.0166667 -0.0333333 0.0333333 0.0333333 0.0333333 -0.0333333 0.0333333 0.0333333 -0.0166667 0.0333333 0.0333333 3.33067e-19 0.0333333 0.0333333 0.0166667 0.0333333 0.0333333 0.0333333 0.0333333 0.0166667 -0.0333333 0.0333333 0.0166667 -0.0166667 0.0333333 0.0166667 1.11022e-18 0.0333333 0.0166667 0.0166667 0.0333333 0.0166667 0.0333333 0.0333333 -4.44089e-18 -0.0333333 0.0333333 -4.21885e-18 -0.0166667 0.0333333 8.88178e-19 8.88178e-19 0.0333333 -1.33227e-18 0.0166667 0.0333333 3.55271e-18 0.0333333 0.0333333 -0.0166667 -0.0333333 0.0333333 -0.0166667 -0.0166667 0.0333333 -0.0166667 2.22045e-18 0.0333333 -0.0166667 0.0166667 0.0333333 -0.0166667 0.0333333 0.0333333 -0.0333333 -0.0333333 0.0333333 -0.0333333 -0.0166667 0.0333333 -0.0333333 2.22045e-18 0.0333333 -0.0333333 0.0166667 0.0333333 -0.0333333 0.0333333 </DataArray>
</Points>
<Cells>
<DataArray type="Int32" Name="connectivity" format="ascii">
68 22 3 23 218 188 63 193 218 188 63 193 219 189 64 194 219 189 64 194 220 190 65 195 220 190 65 195 221 191 66 196 221 191 66 196 222 192 67 197 222 192 67 197 97 42 7 43 69 68 23 24 223 218 193 198 223 218 193 198 224 219 194 199 224 219 194 199 225 220 195 200 225 220 195 200 226 221 196 201 226 221 196 201 227 222 197 202 227 222 197 202 96 97 43 44 70 69 24 25 228 223 198 203 228 223 198 203 229 224 199 204 229 224 199 204 230 225 200 205 230 225 200 205 231 226 201 206 231 226 201 206 232 227 202 207 232 227 202 207 95 96 44 45 71 70 25 26 233 228 203 208 233 228 203 208 234 229 204 209 234 229 204 209 235 230 205 210 235 230 205 210 236 231 206 211 236 231 206 211 237 232 207 212 237 232 207 212 94 95 45 46 72 71 26 27 238 233 208 213 238 233 208 213 239 234 209 214 239 234 209 214 240 235 210 215 240 235 210 215 241 236 211 216 241 236 211 216 242 237 212 217 242 237 212 217 93 94 46 47 8 72 27 0 118 238 213 48 118 238 213 48 119 239 214 49 119 239 214 49 120 240 215 50 120 240 215 50 121 241 216 51 121 241 216 51 122 242 217 52 122 242 217 52 28 93 47 4 73 21 22 68 243 183 188 218 243 183 188 218 244 184 189 219 244 184 189 219 245 185 190 220 245 185 190 220 246 186 191 221 246 186 191 221 247 187 192 222 247 187 192 222 102 41 42 97 74 73 68 69 248 243 218 223 248 243 218 223 249 244 219 224 249 244 219 224 250 245 220 225 250 245 220 225 251 246 221 226 251 246 221 226 252 247 222 227 252 247 222 227 101 102 97 96 75 74 69 70 253 248 223 228 253 248 223 228 254 249 224 229 254 249 224 229 255 250 225 230 255 250 225 230 256 251 226 231 256 251 226 231 257 252 227 232 257 252 227 232 100 101 96 95 76 75 70 71 258 253 228 233 258 253 228 233 259 254 229 234 259 254 229 234 260 255 230 235 260 255 230 235 261 256 231 236 261 256 231 236 262 257 232 237 262 257 232 237 99 100 95 94 77 76 71 72 263 258 233 238 263 258 233 238 264 259 234 239 264 259 234 239 265 260 235 240 265 260 235 240 266 261 236 241 266 261 236 241 267 262 237 242 267 262 237 242 98 99 94 93 9 77 72 8 123 263 238 118 123 263 238 118 124 264 239 119 124 264 239 119 125 265 240 120 125 265 240 120 126 266 241 121 126 266 241 121 127 267 242 122 127 267 242 122 29 98 93 28 78 20 21 73 268 178 183 243 268 178 183 243 269 179 184 244 269 179 184 244 270 180 185 245 270 180 185 245 271 181 186 246 271 181 186 246 272 182 187 247 272 182 187 247 107 40 41 102 79 78 73 74 273 268 243 248 273 268 243 248 274 269 244 249 274 269 244 249 275 270 245 250 275 270 245 250 276 271 246 251 276 271 246 251 277 272 247 252 277 272 247 252 106 107 102 101 80 79 74 75 278 273 248 253 278 273 248 253 279 274 249 254 279 274 249 254 280 275 250 255 280 275 250 255 281 276 251 256 281 276 251 256 282 277 252 257 282 277 252 257 105 106 101 100 81 80 75 76 283 278 253 258 283 278 253 258 284 279 254 259 284 279 254 259 285 280 255 260 285 280 255 260 286 281 256 261 286 281 256 261 287 282 257 262 287 282 257 262 104 105 100 99 82 81 76 77 288 283 258 263 288 283 258 263 289 284 259 264 289 284 259 264 290 285 260 265 290 285 260 265 291 286 261 266 291 286 261 266 292 287 262 267 292 287 262 267 103 104 99 98 10 82 77 9 128 288 263 123 128 288 263 123 129 289 264 124 129 289 264 124 130 290 265 125 130 290 265 125 131 291 266 126 131 291 266 126 132 292 267 127 132 292 267 127 30 103 98 29 83 19 20 78 293 173 178 268 293 173 178 268 294 174 179 269 294 174 179 269 295 175 180 270 295 175 180 270 296 176 181 271 296 176 181 271 297 177 182 272 297 177 182 272 112 39 40 107 84 83 78 79 298 293 268 273 298 293 268 273 299 294 269 274 299 294 269 274 300 295 270 275 300 295 270 275 301 296 271 276 301 296 271 276 302 297 272 277 302 297 272 277 111 112 107 106 85 84 79 80 303 298 273 278 303 298 273 278 304 299 274 279 304 299 274 279 305 300 275 280 305 300 275 280 306 301 276 281 306 301 276 281 307 302 277 282 307 302 277 282 110 111 106 105 86 85 80 81 308 303 278 283 308 303 278 283 309 304 279 284 309 304 279 284 310 305 280 285 310 305 280 285 311 306 281 286 311 306 281 286 312 307 282 287 312 307 282 287 109 110 105 104 87 86 81 82 313 308 283 288 313 308 283 288 314 309 284 289 314 309 284 289 315 310 285 290 315 310 285 290 316 311 286 291 316 311 286 291 317 312 287 292 317 312 287 292 108 109 104 103 11 87 82 10 133 313 288 128 133 313 288 128 134 314 289 129 134 314 289 129 135 315 290 130 135 315 290 130 136 316 291 131 136 316 291 131 137 317 292 132 137 317 292 132 31 108 103 30 88 18 19 83 318 168 173 293 318 168 173 293 319 169 174 294 319 169 174 294 320 170 175 295 320 170 175 295 321 171 176 296 321 171 176 296 322 172 177 297 322 172 177 297 117 38 39 112 89 88 83 84 323 318 293 298 323 318 293 298 324 319 294 299 324 319 294 299 325 320 295 300 325 320 295 300 326 321 296 301 326 321 296 301 327 322 297 302 327 322 297 302 116 117 112 111 90 89 84 85 328 323 298 303 328 323 298 303 329 324 299 304 329 324 299 304 330 325 300 305 330 325 300 305 331 326 301 306 331 326 301 306 332 327 302 307 332 327 302 307 115 116 111 110 91 90 85 86 333 328 303 308 333 328 303 308 334 329 304 309 334 329 304 309 335 330 305 310 335 330 305 310 336 331 306 311 336 331 306 311 337 332 307 312 337 332 307 312 114 115 110 109 92 91 86 87 338 333 308 313 338 333 308 313 339 334 309 314 339 334 309 314 340 335 310 315 340 335 310 315 341 336 311 316 341 336 311 316 342 337 312 317 342 337 312 317 113 114 109 108 12 92 87 11 138 338 313 133 138 338 313 133 139 339 314 134 139 339 314 134 140 340 315 135 140 340 315 135 141 341 316 136 141 341 316 136 142 342 317 137 142 342 317 137 32 113 108 31 17 2 18 88 163 58 168 318 163 58 168 318 164 59 169 319 164 59 169 319 165 60 170 320 165 60 170 320 166 61 171 321 166 61 171 321 167 62 172 322 167 62 172 322 37 6 38 117 16 17 88 89 158 163 318 323 158 163 318 323 159 164 319 324 159 164 319 324 160 165 320 325 160 165 320 325 161 166 321 326 161 166 321 326 162 167 322 327 162 167 322 327 36 37 117 116 15 16 89 90 153 158 323 328 153 158 323 328 154 159 324 329 154 159 324 329 155 160 325 330 155 160 325 330 156 161 326 331 156 161 326 331 157 162 327 332 157 162 327 332 35 36 116 115 14 15 90 91 148 153 328 333 148 153 328 333 149 154 329 334 149 154 329 334 150 155 330 335 150 155 330 335 151 156 331 336 151 156 331 336 152 157 332 337 152 157 332 337 34 35 115 114 13 14 91 92 143 148 333 338 143 148 333 338 144 149 334 339 144 149 334 339 145 150 335 340 145 150 335 340 146 151 336 341 146 151 336 341 147 152 337 342 147 152 337 342 33 34 114 113 1 13 92 12 53 143 338 138 53 143 338 138 54 144 339 139 54 144 339 139 55 145 340 140 55 145 340 140 56 146 341 141 56 146 341 141 57 147 342 142 57 147 342 142 5 33 113 32 </DataArray>
<DataArray type="Int32" Name="offsets" format="ascii">
8 16 24 32 40 48 56 64 72 80 88 96 104 112 120 128 136 144 152 160 168 176 184 192 200 208 216 224 232 240 248 256 264 272 280 288 296 304 312 320 328 336 344 352 360 368 376 384 392 400 408 416 424 432 440 448 456 464 472 480 488 496 504 512 520 528 536 544 552 560 568 576 584 592 600 608 616 624 632 640 648 656 664 672 680 688 696 704 712 720 728 736 744 752 760 768 776 784 792 800 808 816 824 832 840 848 856 864 872 880 888 896 904 912 920 928 936 944 952 960 968 976 984 992 1000 1008 1016 1024 1032 1040 1048 1056 1064 1072 1080 1088 1096 1104 1112 1120 1128 1136 1144 1152 1160 1168 1176 1184 1192 1200 1208 1216 1224 1232 1240 1248 1256 1264 1272 1280 1288 1296 1304 1312 1320 1328 1336 1344 1352 1360 1368 1376 1384 1392 1400 1408 1416 1424 1432 1440 1448 1456 1464 1472 1480 1488 1496 1504 1512 1520 1528 1536 1544 1552 1560 1568 1576 1584 1592 1600 1608 1616 1624 1632 1640 1648 1656 1664 1672 1680 1688 1696 1704 1712 1720 1728 </DataArray>
<DataArray type="UInt8" Name="types" format="ascii">
12 12 12 12 12 12 12 12 12 12 12 12 12 12 12 12 12 12 12 12 12 12 12 12 12 12 12 12 12 12 12 12 12 12 12 12 12 12 12 12 12 12 12 12 12 12 12 12 12 12 12 12 12 12 12 12 12 12 12 12 12 12 12 12 12 12 12 12 12 12 12 12 12 12 12 12 12 12 12 12 12 12 12 12 12 12 12 12 12 12 12 12 12 12 12 12 12 12 12 12 12 12 12 12 12 12 12 12 12 12 12 12 12 12 12 12 12 12 12 12 12 12 12 12 12 12 12 12 12 12 12 12 12 12 12 12 12 12 12 12 12 12 12 12 12 12 12 12 12 12 12 12 12 12 12 12 12 12 12 12 12 12 12 12 12 12 12 12 12 12 12 12 12 12 12 12 12 12 12 12 12 12 12 12 12 12 12 12 12 12 12 12 12 12 12 12 12 12 12 12 12 12 12 12 12 12 12 12 12 12 12 12 12 12 12 12 </DataArray>
</Cells>
<CellData Scalars="scalars">
<DataArray type="Float32" Name="number_density" format="ascii">
7.776e+15 7.992e+15 8.208e+15 8.64e+15 9.288e+15 9.072e+15 7.344e+15 8.64e+15 8.424e+15 9.72e+15 8.208e+15 9.936e+15 9.072e+15 9.936e+15 7.128e+15 6.48e+15 8.424e+15 1.188e+16 8.64e+15 1.08e+16 7.344e+15 8.856e+15 8.64e+15 8.64e+15 1.0368e+16 6.696e+15 1.1664e+16 1.08e+16 9.072e+15 1.1448e+16 9.288e+15 7.776e+15 9.072e+15 7.776e+15 9.504e+15 6.912e+15 8.208e+15 8.856e+15 1.0368e+16 1.0152e+16 9.504e+15 9.072e+15 7.344e+15 8.208e+15 1.1232e+16 1.08e+16 1.1664e+16 1.1448e+16 7.992e+15 1.08e+16 8.856e+15 1.3392e+16 1.2744e+16 9.288e+15 8.856e+15 1.1232e+16 1.188e+16 1.296e+16 1.2744e+16 8.424e+15 7.56e+15 9.72e+15 1.1448e+16 1.1016e+16 8.64e+15 1.1448e+16 1.1448e+16 9.072e+15 1.1232e+16 1.08e+16 9.072e+15 9.72e+15 6.48e+15 1.0152e+16 1.0368e+16 1.08e+16 1.0584e+16 9.504e+15 7.56e+15 8.208e+15 1.2312e+16 1.296e+16 1.4256e+16 9.504e+15 7.56e+15 1.0368e+16 1.7064e+16 1.62e+16 1.512e+16 1.3176e+16 7.344e+15 1.0152e+16 1.5336e+16 1.4904e+16 1.5336e+16 9.504e+15 6.912e+15 7.992e+15 1.0368e+16 9.504e+15 1.188e+16 9.936e+15 7.128e+15 9.072e+15 9.288e+15 7.776e+15 9.504e+15 1.0152e+16 1.0152e+16 9.504e+15 1.0368e+16 9.936e+15 1.1664e+16 1.2312e+16 7.56e+15 1.0368e+16 1.1448e+16 1.296e+16 1.1232e+16 1.3176e+16 6.912e+15 1.1016e+16 1.5768e+16 1.2744e+16 1.7064e+16 9.936e+15 7.776e+15 7.776e+15 1.4256e+16 1.4904e+16 1.2528e+16 1.1448e+16 1.08e+16 9.288e+15 9.936e+15 1.2528e+16 1.0584e+16 1.0152e+16 6.912e+15 9.072e+15 7.56e+15 9.936e+15 7.56e+15 9.072e+15 8.424e+15 9.504e+15 1.0152e+16 1.188e+16 9.504e+15 9.936e+15 9.288e+15 1.2312e+16 1.1232e+16 1.0584e+16 1.2744e+16 9.72e+15 9.72e+15 1.188e+16 1.1448e+16 1.1664e+16 1.1232e+16 8.64e+15 9.504e+15 8.208e+15 1.3608e+16 1.0584e+16 1.1448e+16 1.188e+16 9.072e+15 1.0152e+16 8.208e+15 8.208e+15 7.992e+15 9.936e+15 8.64e+15 7.344e+15 8.208e+15 9.72e+15 1.0152e+16 9.72e+15 9.72e+15 8.856e+15 1.08e+16 9.72e+15 9.504e+15 1.1016e+16 8.208e+15 1.0584e+16 1.08e+16 9.288e+15 1.0152e+16 8.64e+15 8.64e+15 8.424e+15 9.72e+15 1.2096e+16 9.72e+15 1.08e+16 9.072e+15 5.4e+15 9.072e+15 8.856e+15 8.424e+15 1.08e+16 9.288e+15 9.504e+15 8.64e+15 7.776e+15 9.72e+15 1.0368e+16 1.0584e+16 6.696e+15 9.504e+15 8.424e+15 9.504e+15 1.2096e+16 </DataArray>
<DataArray type="Float32" Name="potential" format="ascii">
0 0 0 0 0 0 0 0 0 0 0 0 0 0 0 0 0 0 0 0 0 0 0 0 0 0 0 0 0 0 0 0 0 0 0 0 0 0 0 0 0 0 0 0 0 0 0 0 0 0 0 0 0 0 0 0 0 0 0 0 0 0 0 0 0 0 0 0 0 0 0 0 0 0 0 0 0 0 0 0 0 0 0 0 0 0 0 0 0 0 0 0 0 0 0 0 0 0 0 0 0 0 0 0 0 0 0 0 0 0 0 0 0 0 0 0 0 0 0 0 0 0 0 0 0 0 0 0 0 0 0 0 0 0 0 0 0 0 0 0 0 0 0 0 0 0 0 0 0 0 0 0 0 0 0 0 0 0 0 0 0 0 0 0 0 0 0 0 0 0 0 0 0 0 0 0 0 0 0 0 0 0 0 0 0 0 0 0 0 0 0 0 0 0 0 0 0 0 0 0 0 0 0 0 0 0 0 0 0 0 0 0 0 0 0 0 </DataArray>
<DataArray type="Float32" Name="temperature" format="ascii">
236.431 339.868 270.378 301.496 350.537 269.327 229.991 273.003 398.173 364.898 363.05 326.632 242.791 321.83 301.327 302.498 342.834 322.105 266.187 322.687 315.285 402.111 277.217 282.034 212.536 269.808 265.214 223.329 302.347 356.762 291.962 324.783 294.018 333.891 288.504 273.856 238.196 266.33 335.3 293.485 262.408 320.358 285.771 351.548 336.076 345.037 289.959 325.273 311.161 270.861 385.28 315.387 365.849 248.894 294.553 295.412 321.263 362.614 290.159 301.786 383.604 269.149 290.886 239.023 282.687 303.269 313.308 262.803 278.179 358.142 214.584 245.038 202.044 315.482 307.012 325.218 312.491 343.13 247.789 229.134 382.487 447.974 339.805 236.863 316.198 392.253 393.214 467.993 366.652 354.455 266.637 354.512 347.985 446.79 340.724 321.767 239.494 296.155 357.5 397.875 288.596 280.813 428.11 285.79 291.83 376.778 334.292 359.563 262.709 250.019 358.063 335.224 358.222 250.053 195.238 327.786 356.845 370.106 362.828 298.016 277.832 329.715 436.093 450.565 403.997 300.711 282.907 284.537 399.458 470.29 429.347 296.115 285.967 387.707 342.469 278.979 341.34 301.423 255.608 354.648 305.376 293.576 297.855 223.509 285.374 311.799 318.669 255.023 292.06 251.141 271.005 283.609 319.378 336.433 362.853 316.927 290.295 288.886 376.759 319.313 284.046 286.55 340.334 312.07 269.755 406.43 299.449 307.34 325.251 278.655 367.685 235.645 330.649 263.986 266.662 245.281 270.509 266.385 285.637 268.309 300.847 282.852 322.469 302.516 284.395 327.423 304.442 344.561 277.514 317.647 252.851 282.612 273.981 285.217 257.116 292.968 296.48 306.929 244.101 208.863 317.702 342.815 225.339 264.484 269.787 276.157 277.165 270.958 255.841 319.308 283.992 272.883 282.889 293.951 261.623 219.675 </DataArray>
<DataArray type="Float32" Name="velocity" format="ascii">
107.727 172.961 152.065 173.302 128.917 58.0977 142.398 207.177 304.636 275.148 173.57 92.412 243 245.422 374.772 253.436 156.184 52.7109 190.767 299.555 323.572 240.501 142.526 109.263 93.295 128.348 192.081 220.801 183.305 140.186 64.6092 100.66 187.145 115.928 146.472 129.109 168.136 304.028 245.122 249.441 89.2167 53.933 206.578 365.601 363.124 303.41 202.809 119.197 295.197 442.374 563.636 449.991 212.891 147.497 282.239 413.997 534.328 466.162 245.289 158.327 144.89 375.668 350.99 349.702 248.582 132.262 78.3166 178.031 266.368 212.442 131.487 56.9224 223.646 286.156 334.874 294.595 102.669 119.377 333.271 426.776 505.418 345.492 156.002 75.513 448.772 597.383 756.937 453.877 155.917 143.214 338.83 601.39 709.401 515.331 264.691 160.032 239.442 406.899 493.13 439.754 232.883 210.17 116.035 324.117 278.178 180.101 142.358 55.1898 226.485 263.925 338.092 250.305 136.507 61.5396 268.585 454.364 598.437 278.39 74.2507 47.418 436.437 604.164 719.546 406.808 88.6539 118.419 433.183 582.257 671.789 580.08 260.352 185.923 336.704 513.234 530.016 473.662 264.609 166.324 183.084 264.439 356.995 335.039 150.459 129.517 156.43 229.494 277.138 132.933 34.8455 78.8303 180.275 346.552 325.056 287.479 171.266 94.5676 309.55 421.177 535.785 324.746 141.623 112.991 295.73 412.65 542.165 454.74 281.692 135.647 147.752 367.455 454.078 386.918 220.281 191.358 141.665 202.007 290.714 239.053 158.386 118.698 44.604 115.083 148.927 135.819 61.2613 96.2932 141.163 233.108 231.417 186.456 105.056 41.9288 114.526 281.002 286.638 258.875 199.4 104.689 239.558 390.921 347.96 308.768 194.455 80.1093 109.756 228.767 273.924 254.76 168.708 72.0658 47.7229 134.512 228.691 138.381 73.4217 131.989 </DataArray>
<DataArray type="Float32" Name="E_field" format="ascii">
0 0 0 0 0 0 0 0 0 0 0 0 0 0 0 0 0 0 0 0 0 0 0 0 0 0 0 0 0 0 0 0 0 0 0 0 0 0 0 0 0 0 0 0 0 0 0 0 0 0 0 0 0 0 0 0 0 0 0 0 0 0 0 0 0 0 0 0 0 0 0 0 0 0 0 0 0 0 0 0 0 0 0 0 0 0 0 0 0 0 0 0 0 0 0 0 0 0 0 0 0 0 0 0 0 0 0 0 0 0 0 0 0 0 0 0 0 0 0 0 0 0 0 0 0 0 0 0 0 0 0 0 0 0 0 0 0 0 0 0 0 0 0 0 0 0 0 0 0 0 0 0 0 0 0 0 0 0 0 0 0 0 0 0 0 0 0 0 0 0 0 0 0 0 0 0 0 0 0 0 0 0 0 0 0 0 0 0 0 0 0 0 0 0 0 0 0 0 0 0 0 0 0 0 0 0 0 0 0 0 0 0 0 0 0 0 </DataArray>
</CellData>
<PointData Scalars="number_density">
<DataArray type="Float32" Name="number_density" format="ascii">
9.288e+15 1.0584e+16 9.72e+15 7.776e+15 6.912e+15 1.2096e+16 1.1016e+16 9.072e+15 1.0368e+16 9.288e+15 7.02e+15 7.776e+15 9.612e+15 9.936e+15 9.18e+15 8.856e+15 8.424e+15 8.964e+15 9.072e+15 9.288e+15 8.316e+15 7.344e+15 7.992e+15 7.56e+15 8.208e+15 8.856e+15 9.504e+15 9.828e+15 8.316e+15 9.936e+15 9.612e+15 9.396e+15 1.0908e+16 1.1232e+16 1.0584e+16 1.08e+16 9.72e+15 9.828e+15 1.0476e+16 1.1124e+16 1.0908e+16 9.288e+15 9.072e+15 9.504e+15 1.0908e+16 1.026e+16 1.0044e+16 9.18e+15 8.532e+15 8.424e+15 8.424e+15 8.64e+15 8.208e+15 8.64e+15 8.1e+15 8.964e+15 8.964e+15 1.08e+16 9.288e+15 9.828e+15 1.026e+16 9.612e+15 1.026e+16 7.884e+15 8.1e+15 8.424e+15 8.964e+15 9.18e+15 7.668e+15 7.938e+15 8.64e+15 8.856e+15 9.666e+15 7.398e+15 7.614e+15 7.938e+15 7.668e+15 8.262e+15 7.938e+15 7.398e+15 7.398e+15 8.208e+15 7.938e+15 8.856e+15 8.37e+15 8.478e+15 9.288e+15 8.856e+15 8.91e+15 8.964e+15 9.234e+15 9.234e+15 9.396e+15 9.882e+15 9.99e+15 9.558e+15 1.0638e+16 9.882e+15 1.0314e+16 9.828e+15 1.0098e+16 1.0854e+16 9.882e+15 9.828e+15 1.026e+16 1.1016e+16 1.1448e+16 1.1124e+16 9.72e+15 1.0854e+16 1.0476e+16 1.0368e+16 1.1286e+16 1.053e+16 1.0746e+16 1.053e+16 9.45e+15 9.828e+15 9.396e+15 9.288e+15 9.72e+15 9.288e+15 8.802e+15 9.18e+15 9.666e+15 9.774e+15 9.288e+15 9.612e+15 8.046e+15 8.748e+15 8.64e+15 8.694e+15 9.072e+15 7.992e+15 8.046e+15 8.856e+15 9.342e+15 9.126e+15 8.316e+15 7.938e+15 8.964e+15 9.45e+15 1.0368e+16 9.018e+15 8.586e+15 8.586e+15 8.856e+15 1.0422e+16 8.316e+15 8.154e+15 8.586e+15 8.694e+15 9.828e+15 7.884e+15 8.154e+15 9.936e+15 9.774e+15 9.936e+15 8.964e+15 9.882e+15 1.0476e+16 1.0314e+16 9.828e+15 9.342e+15 1.026e+16 1.0152e+16 9.666e+15 9.828e+15 9.126e+15 9.828e+15 1.0638e+16 1.0152e+16 9.99e+15 9.396e+15 9.882e+15 1.0584e+16 1.0746e+16 1.0854e+16 9.072e+15 1.0098e+16 1.0368e+16 1.0746e+16 1.1016e+16 8.424e+15 9.936e+15 1.0422e+16 1.026e+16 9.666e+15 8.208e+15 8.856e+15 9.342e+15 9.396e+15 9.234e+15 7.938e+15 8.316e+15 8.748e+15 8.964e+15 9.126e+15 8.748e+15 8.532e+15 7.938e+15 8.208e+15 9.612e+15 9.612e+15 8.802e+15 7.452e+15 8.1e+15 9.396e+15 9.126e+15 9.126e+15 9.666e+15 9.342e+15 9.45e+15 8.532e+15 8.802e+15 9.828e+15 9.288e+15 9.234e+15 8.046e+15 8.991e+15 9.693e+15 9.747e+15 9.774e+15 8.667e+15 9.153e+15 9.504e+15 1.0179e+16 1.0449e+16 9.666e+15 9.747e+15 9.612e+15 1.053e+16 1.0098e+16 9.234e+15 1.0098e+16 1.0746e+16 1.0341e+16 9.882e+15 8.991e+15 9.585e+15 1.0476e+16 9.585e+15 9.477e+15 8.127e+15 9.963e+15 1.1124e+16 1.134e+16 1.0692e+16 8.505e+15 1.0881e+16 1.2852e+16 1.3392e+16 1.215e+16 9.288e+15 1.1961e+16 1.3824e+16 1.4175e+16 1.2042e+16 8.721e+15 1.1016e+16 1.2177e+16 1.2123e+16 1.0989e+16 8.613e+15 9.774e+15 1.0179e+16 9.774e+15 1.0044e+16 8.748e+15 1.0341e+16 1.1394e+16 1.1799e+16 1.1529e+16 8.694e+15 1.2069e+16 1.3932e+16 1.4067e+16 1.2933e+16 8.613e+15 1.2717e+16 1.5147e+16 1.485e+16 1.3014e+16 8.505e+15 1.0638e+16 1.2717e+16 1.2771e+16 1.1421e+16 8.397e+15 9.072e+15 9.612e+15 9.909e+15 9.855e+15 9.639e+15 1.0611e+16 1.107e+16 1.1313e+16 1.1286e+16 9.882e+15 1.1934e+16 1.2231e+16 1.2528e+16 1.1718e+16 9.099e+15 1.1745e+16 1.3122e+16 1.2771e+16 1.1772e+16 9.072e+15 1.0179e+16 1.1529e+16 1.1097e+16 1.0746e+16 8.91e+15 8.721e+15 9.288e+15 9.585e+15 9.396e+15 9.612e+15 1.053e+16 1.0557e+16 1.0422e+16 1.0152e+16 9.882e+15 1.08e+16 1.0854e+16 1.0935e+16 1.0206e+16 8.856e+15 9.72e+15 1.0881e+16 1.0503e+16 1.0368e+16 8.775e+15 9.099e+15 9.369e+15 9.126e+15 1.0071e+16 8.91e+15 8.532e+15 8.586e+15 8.937e+15 9.936e+15 </DataArray>
<DataArray type="Float32" Name="potential" format="ascii">
0 0 0 0 0 0 0 0 0 0 0 0 0 0 0 0 0 0 0 0 0 0 0 0 0 0 0 0 0 0 0 0 0 0 0 0 0 0 0 0 0 0 0 0 0 0 0 0 0 0 0 0 0 0 0 0 0 0 0 0 0 0 0 0 0 0 0 0 0 0 0 0 0 0 0 0 0 0 0 0 0 0 0 0 0 0 0 0 0 0 0 0 0 0 0 0 0 0 0 0 0 0 0 0 0 0 0 0 0 0 0 0 0 0 0 0 0 0 0 0 0 0 0 0 0 0 0 0 0 0 0 0 0 0 0 0 0 0 0 0 0 0 0 0 0 0 0 0 0 0 0 0 0 0 0 0 0 0 0 0 0 0 0 0 0 0 0 0 0 0 0 0 0 0 0 0 0 0 0 0 0 0 0 0 0 0 0 0 0 0 0 0 0 0 0 0 0 0 0 0 0 0 0 0 0 0 0 0 0 0 0 0 0 0 0 0 0 0 0 0 0 0 0 0 0 0 0 0 0 0 0 0 0 0 0 0 0 0 0 0 0 0 0 0 0 0 0 0 0 0 0 0 0 0 0 0 0 0 0 0 0 0 0 0 0 0 0 0 0 0 0 0 0 0 0 0 0 0 0 0 0 0 0 0 0 0 0 0 0 0 0 0 0 0 0 0 0 0 0 0 0 0 0 0 0 0 0 0 0 0 0 0 0 0 0 0 0 0 0 0 0 0 0 0 0 0 0 0 0 0 0 0 0 0 0 0 0 0 0 0 0 0 0 </DataArray>
<DataArray type="Float32" Name="temperature" format="ascii">