<VTKFile type="UnstructuredGrid" version="0.1" byte_order="LittleEndian">
<UnstructuredGrid>
<Piece NumberOfPoints="343" NumberOfCells="216">
<Points>
<DataArray type="Float32" NumberOfComponents="3" format="ascii">
-0.05 -0.05 -0.05 0.05 -0.05 -0.05 0.05 0.05 -0.05 -0.05 0.05 -0.05 -0.05 -0.05 0.05 0.05 -0.05 0.05 0.05 0.05 0.05 -0.05 0.05 0.05 -0.0333333 -0.05 -0.05 -0.0166667 -0.05 -0.05 0 -0.05 -0.05 0.0166667 -0.05 -0.05 0.0333333 -0.05 -0.05 0.05 -0.0333333 -0.05 0.05 -0.0166667 -0.05 0.05 0 -0.05 0.05 0.0166667 -0.05 0.05 0.0333333 -0.05 0.0333333 0.05 -0.05 0.0166667 0.05 -0.05 0 0.05 -0.05 -0.0166667 0.05 -0.05 -0.0333333 0.05 -0.05 -0.05 0.0333333 -0.05 -0.05 0.0166667 -0.05 -0.05 0 -0.05 -0.05 -0.0166667 -0.05 -0.05 -0.0333333 -0.05 -0.0333333 -0.05 0.05 -0.0166667 -0.05 0.05 0 -0.05 0.05 0.0166667 -0.05 0.05 0.0333333 -0.05 0.05 0.05 -0.0333333 0.05 0.05 -0.0166667 0.05 0.05 0 0.05 0.05 0.0166667 0.05 0.05 0.0333333 0.05 0.0333333 0.05 0.05 0.0166667 0.05 0.05 0 0.05 0.05 -0.0166667 0.05 0.05 -0.0333333 0.05 0.05 -0.05 0.0333333 0.05 -0.05 0.0166667 0.05 -0.05 0 0.05 -0.05 -0.0166667 0.05 -0.05 -0.0333333 0.05 -0.05 -0.05 -0.0333333 -0.05 -0.05 -0.0166667 -0.05 -0.05 0 -0.05 -0.05 0.0166667 -0.05 -0.05 0.0333333 0.05 -0.05 -0.0333333 0.05 -0.05 -0.0166667 0.05 -0.05 0 0.05 -0.05 0.0166667 0.05 -0.05 0.0333333 0.05 0.05 -0.0333333 0.05 0.05 -0.0166667 0.05 0.05 0 0.05 0.05 0.0166667 0.05 0.05 0.0333333 -0.05 0.05 -0.0333333 -0.05 0.05 -0.0166667 -0.05 0.05 0 -0.05 0.05 0.0166667 -0.05 0.05 0.0333333 -0.0333333 0.0333333 -0.05 -0.0333333 0.0166667 -0.05 -0.0333333 -3.55271e-18 -0.05 -0.0333333 -0.0166667 -0.05 -0.0333333 -0.0333333 -0.05 -0.0166667 0.0333333 -0.05 -0.0166667 0.0166667 -0.05 -0.0166667 -7.10543e-18 -0.05 -0.0166667 -0.0166667 -0.05 -0.0166667 -0.0333333 -0.05 1.77636e-18 0.0333333 -0.05 5.32907e-18 0.0166667 -0.05 3.55271e-18 -1.77636e-18 -0.05 7.10543e-18 -0.0166667 -0.05 3.55271e-18 -0.0333333 -0.05 0.0166667 0.0333333 -0.05 0.0166667 0.0166667 -0.05 0.0166667 -7.10543e-18 -0.05 0.0166667 -0.0166667 -0.05 0.0166667 -0.0333333 -0.05 0.0333333 0.0333333 -0.05 0.0333333 0.0166667 -0.05 0.0333333 -1.77636e-18 -0.05 0.0333333 -0.0166667 -0.05 0.0333333 -0.0333333 -0.05 -0.0333333 -0.0333333 0.05 -0.0333333 -0.0166667 0.05 -0.0333333 0 0.05 -0.0333333 0.0166667 0.05 -0.0333333 0.0333333 0.05 -0.0166667 -0.0333333 0.05 -0.0166667 -0.0166667 0.05 -0.0166667 0 0.05 -0.0166667 0.0166667 0.05 -0.0166667 0.0333333 0.05 0 -0.0333333 0.05 0 -0.0166667 0.05 0 0 0.05 0 0.0166667 0.05 0 0.0333333 0.05 0.0166667 -0.0333333 0.05 0.0166667 -0.0166667 0.05 0.0166667 0 0.05 0.0166667 0.0166667 0.05 0.0166667 0.0333333 0.05 0.0333333 -0.0333333 0.05 0.0333333 -0.0166667 0.05 0.0333333 1.77636e-18 0.05 0.0333333 0.0166667 0.05 0.0333333 0.0333333 0.05 -0.0333333 -0.05 -0.0333333 -0.0333333 -0.05 -0.0166667 -0.0333333 -0.05 0 -0.0333333 -0.05 0.0166667 -0.0333333 -0.05 0.0333333 -0.0166667 -0.05 -0.0333333 -0.0166667 -0.05 -0.0166667 -0.0166667 -0.05 0 -0.0166667 -0.05 0.0166667 -0.0166667 -0.05 0.0333333 0 -0.05 -0.0333333 0 -0.05 -0.0166667 0 -0.05 0 0 -0.05 0.0166667 0 -0.05 0.0333333 0.0166667 -0.05 -0.0333333 0.0166667 -0.05 -0.0166667 0.0166667 -0.05 0 0.0166667 -0.05 0.0166667 0.0166667 -0.05 0.0333333 0.0333333 -0.05 -0.0333333 0.0333333 -0.05 -0.0166667 0.0333333 -0.05 1.77636e-18 0.0333333 -0.05 0.0166667 0.0333333 -0.05 0.0333333 0.05 -0.0333333 -0.0333333 0.05 -0.0333333 -0.0166667 0.05 -0.0333333 0 0.05 -0.0333333 0.0166667 0.05 -0.0333333 0.0333333 0.05 -0.0166667 -0.0333333 0.05 -0.0166667 -0.0166667 0.05 -0.0166667 0 0.05 -0.0166667 0.0166667 0.05 -0.0166667 0.0333333 0.05 0 -0.0333333 0.05 0 -0.0166667 0.05 0 0 0.05 0 0.0166667 0.05 0 0.0333333 0.05 0.0166667 -0.0333333 0.05 0.0166667 -0.0166667 0.05 0.0166667 0 0.05 0.0166667 0.0166667 0.05 0.0166667 0.0333333 0.05 0.0333333 -0.0333333 0.05 0.0333333 -0.0166667 0.05 0.0333333 1.77636e-18 0.05 0.0333333 0.0166667 0.05 0.0333333 0.0333333 0.0333333 0.05 -0.0333333 0.0333333 0.05 -0.0166667 0.0333333 0.05 0 0.0333333 0.05 0.0166667 0.0333333 0.05 0.0333333 0.0166667 0.05 -0.0333333 0.0166667 0.05 -0.0166667 0.0166667 0.05 0 0.0166667 0.05 0.0166667 0.0166667 0.05 0.0333333 0 0.05 -0.0333333 0 0.05 -0.0166667 0 0.05 0 0 0.05 0.0166667 0 0.05 0.0333333 -0.0166667 0.05 -0.0333333 -0.0166667 0.05 -0.0166667 -0.0166667 0.05 0 -0.0166667 0.05 0.0166667 -0.0166667 0.05 0.0333333 -0.0333333 0.05 -0.0333333 -0.0333333 0.05 -0.0166667 -0.0333333 0.05 1.77636e-18 -0.0333333 0.05 0.0166667 -0.0333333 0.05 0.0333333 -0.05 0.0333333 -0.0333333 -0.05 0.0333333 -0.0166667 -0.05 0.0333333 0 -0.05 0.0333333 0.0166667 -0.05 0.0333333 0.0333333 -0.05 0.0166667 -0.0333333 -0.05 0.0166667 -0.0166667 -0.05 0.0166667 0 -0.05 0.0166667 0.0166667 -0.05 0.0166667 0.0333333 -0.05 0 -0.0333333 -0.05 0 -0.0166667 -0.05 0 0 -0.05 0 0.0166667 -0.05 0 0.0333333 -0.05 -0.0166667 -0.0333333 -0.05 -0.0166667 -0.0166667 -0.05 -0.0166667 0 -0.05 -0.0166667 0.0166667 -0.05 -0.0166667 0.0333333 -0.05 -0.0333333 -0.0333333 -0.05 -0.0333333 -0.0166667 -0.05 -0.0333333 1.77636e-18 -0.05 -0.0333333 0.0166667 -0.05 -0.0333333 0.0333333 -0.0333333 0.0333333 -0.0333333 -0.0333333 0.0333333 -0.0166667 -0.0333333 0.0333333 4.44089e-19 -0.0333333 0.0333333 0.0166667 -0.0333333 0.0333333 0.0333333 -0.0333333 0.0166667 -0.0333333 -0.0333333 0.0166667 -0.0166667 -0.0333333 0.0166667 -4.44089e-18 -0.0333333 0.0166667 0.0166667 -0.0333333 0.0166667 0.0333333 -0.0333333 -6.66134e-18 -0.0333333 -0.0333333 -9.76996e-18 -0.0166667 -0.0333333 -1.77636e-18 -1.77636e-18 -0.0333333 -1.77636e-18 0.0166667 -0.0333333 3.55271e-18 0.0333333 -0.0333333 -0.0166667 -0.0333333 -0.0333333 -0.0166667 -0.0166667 -0.0333333 -0.0166667 1.77636e-18 -0.0333333 -0.0166667 0.0166667 -0.0333333 -0.0166667 0.0333333 -0.0333333 -0.0333333 -0.0333333 -0.0333333 -0.0333333 -0.0166667 -0.0333333 -0.0333333 0 -0.0333333 -0.0333333 0.0166667 -0.0333333 -0.0333333 0.0333333 -0.0166667 0.0333333 -0.0333333 -0.0166667 0.0333333 -0.0166667 -0.0166667 0.0333333 2.66454e-18 -0.0166667 0.0333333 0.0166667 -0.0166667 0.0333333 0.0333333 -0.0166667 0.0166667 -0.0333333 -0.0166667 0.0166667 -0.0166667 -0.0166667 0.0166667 -1.77636e-18 -0.0166667 0.0166667 0.0166667 -0.0166667 0.0166667 0.0333333 -0.0166667 -1.06581e-17 -0.0333333 -0.0166667 -1.15463e-17 -0.0166667 -0.0166667 -3.55271e-18 0 -0.0166667 -8.88178e-18 0.0166667 -0.0166667 -1.77636e-18 0.0333333 -0.0166667 -0.0166667 -0.0333333 -0.0166667 -0.0166667 -0.0166667 -0.0166667 -0.0166667 3.55271e-18 -0.0166667 -0.0166667 0.0166667 -0.0166667 -0.0166667 0.0333333 -0.0166667 -0.0333333 -0.0333333 -0.0166667 -0.0333333 -0.0166667 -0.0166667 -0.0333333 0 -0.0166667 -0.0333333 0.0166667 -0.0166667 -0.0333333 0.0333333 3.44169e-18 0.0333333 -0.0333333 1.02141e-17 0.0333333 -0.0166667 2.66454e-18 0.0333333 -8.88178e-19 6.21725e-18 0.0333333 0.0166667 1.33227e-18 0.0333333 0.0333333 7.99361e-18 0.0166667 -0.0333333 8.43769e-18 0.0166667 -0.0166667 8.88178e-19 0.0166667 8.88178e-19 7.99361e-18 0.0166667 0.0166667 3.55271e-18 0.0166667 0.0333333 3.55271e-18 -1.77636e-18 -0.0333333 9.76996e-18 -9.76996e-18 -0.0166667 0 -8.88178e-19 -8.88178e-19 8.88178e-18 -8.88178e-18 0.0166667 1.77636e-18 -1.77636e-18 0.0333333 1.02141e-17 -0.0166667 -0.0333333 1.24345e-17 -0.0166667 -0.0166667 3.55271e-18 -0.0166667 -1.77636e-18 8.88178e-18 -0.0166667 0.0166667 3.55271e-18 -0.0166667 0.0333333 5.77316e-18 -0.0333333 -0.0333333 4.44089e-18 -0.0333333 -0.0166667 1.77636e-18 -0.0333333 1.77636e-18 5.32907e-18 -0.0333333 0.0166667 0 -0.0333333 0.0333333 0.0166667 0.0333333 -0.0333333 0.0166667 0.0333333 -0.0166667 0.0166667 0.0333333 -2.66454e-18 0.0166667 0.0333333 0.0166667 0.0166667 0.0333333 0.0333333 0.0166667 0.0166667 -0.0333333 0.0166667 0.0166667 -0.0166667 0.0166667 0.0166667 3.10862e-18 0.0166667 0.0166667 0.0166667 0.0166667 0.0166667 0.0333333 0.0166667 -1.24345e-17 -0.0333333 0.0166667 -1.37668e-17 -0.0166667 0.0166667 -3.55271e-18 -1.77636e-18 0.0166667 -6.21725e-18 0.0166667 0.0166667 -8.88178e-19 0.0333333 0.0166667 -0.0166667 -0.0333333 0.0166667 -0.0166667 -0.0166667 0.0166667 -0.0166667 2.66454e-18 0.0166667 -0.0166667 0.0166667 0.0166667 -0.0166667 0.0333333 0.0166667 -0.0333333 -0.0333333 0.0166667 -0.0333333 -0.0166667 0.0166667 -0.0333333 0 0.0166667 -0.0333333 0.0166667 0.0166667 -0.0333333 0.0333333 0.0333333 0.0333333 -0.0333333 0.0333333 0.0333333 -0.0166667 0.0333333 0.0333333 3.33067e-19 0.0333333 0.0333333 0.0166667 0.0333333 0.0333333 0.0333333 0.0333333 0.0166667 -0.0333333 0.0333333 0.0166667 -0.0166667 0.0333333 0.0166667 1.11022e-18 0.0333333 0.0166667 0.0166667 0.0333333 0.0166667 0.0333333 0.0333333 -4.44089e-18 -0.0333333 0.0333333 -4.21885e-18 -0.0166667 0.0333333 8.88178e-19 8.88178e-19 0.0333333 -1.33227e-18 0.0166667 0.0333333 3.55271e-18 0.0333333 0.0333333 -0.0166667 -0.0333333 0.0333333 -0.0166667 -0.0166667 0.0333333 -0.0166667 2.22045e-18 0.0333333 -0.0166667 0.0166667 0.0333333 -0.0166667 0.0333333 0.0333333 -0.0333333 -0.0333333 0.0333333 -0.0333333 -0.0166667 0.0333333 -0.0333333 2.22045e-18 0.0333333 -0.0333333 0.0166667 0.0333333 -0.0333333 0.0333333 </DataArray>
</Points>
<Cells>
<DataArray type="Int32" Name="connectivity" format="ascii">
68 22 3 23 218 188 63 193 218 188 63 193 219 189 64 194 219 189 64 194 220 190 65 195 220 190 65 195 221 191 66 196 221 191 66 196 222 192 67 197 222 192 67 197 97 42 7 43 69 68 23 24 223 218 193 198 223 218 193 198 224 219 194 199 224 219 194 199 225 220 195 200 225 220 195 200 226 221 196 201 226 221 196 201 227 222 197 202 227 222 197 202 96 97 43 44 70 69 24 25 228 223 198 203 228 223 198 203 229 224 199 204 229 224 199 204 230 225 200 205 230 225 200 205 231 226 201 206 231 226 201 206 232 227 202 207 232 227 202 207 95 96 44 45 71 70 25 26 233 228 203 208 233 228 203 208 234 229 204 209 234 229 204 209 235 230 205 210 235 230 205 210 236 231 206 211 236 231 206 211 237 232 207 212 237 232 207 212 94 95 45 46 72 71 26 27 238 233 208 213 238 233 208 213 239 234 209 214 239 234 209 214 240 235 210 215 240 235 210 215 241 236 211 216 241 236 211 216 242 237 212 217 242 237 212 217 93 94 46 47 8 72 27 0 118 238 213 48 118 238 213 48 119 239 214 49 119 239 214 49 120 240 215 50 120 240 215 50 121 241 216 51 121 241 216 51 122 242 217 52 122 242 217 52 28 93 47 4 73 21 22 68 243 183 188 218 243 183 188 218 244 184 189 219 244 184 189 219 245 185 190 220 245 185 190 220 246 186 191 221 246 186 191 221 247 187 192 222 247 187 192 222 102 41 42 97 74 73 68 69 248 243 218 223 248 243 218 223 249 244 219 224 249 244 219 224 250 245 220 225 250 245 220 225 251 246 221 226 251 246 221 226 252 247 222 227 252 247 222 227 101 102 97 96 75 74 69 70 253 248 223 228 253 248 223 228 254 249 224 229 254 249 224 229 255 250 225 230 255 250 225 230 256 251 226 231 256 251 226 231 257 252 227 232 257 252 227 232 100 101 96 95 76 75 70 71 258 253 228 233 258 253 228 233 259 254 229 234 259 254 229 234 260 255 230 235 260 255 230 235 261 256 231 236 261 256 231 236 262 257 232 237 262 257 232 237 99 100 95 94 77 76 71 72 263 258 233 238 263 258 233 238 264 259 234 239 264 259 234 239 265 260 235 240 265 260 235 240 266 261 236 241 266 261 236 241 267 262 237 242 267 262 237 242 98 99 94 93 9 77 72 8 123 263 238 118 123 263 238 118 124 264 239 119 124 264 239 119 125 265 240 120 125 265 240 120 126 266 241 121 126 266 241 121 127 267 242 122 127 267 242 122 29 98 93 28 78 20 21 73 268 178 183 243 268 178 183 243 269 179 184 244 269 179 184 244 270 180 185 245 270 180 185 245 271 181 186 246 271 181 186 246 272 182 187 247 272 182 187 247 107 40 41 102 79 78 73 74 273 268 243 248 273 268 243 248 274 269 244 249 274 269 244 249 275 270 245 250 275 270 245 250 276 271 246 251 276 271 246 251 277 272 247 252 277 272 247 252 106 107 102 101 80 79 74 75 278 273 248 253 278 273 248 253 279 274 249 254 279 274 249 254 280 275 250 255 280 275 250 255 281 276 251 256 281 276 251 256 282 277 252 257 282 277 252 257 105 106 101 100 81 80 75 76 283 278 253 258 283 278 253 258 284 279 254 259 284 279 254 259 285 280 255 260 285 280 255 260 286 281 256 261 286 281 256 261 287 282 257 262 287 282 257 262 104 105 100 99 82 81 76 77 288 283 258 263 288 283 258 263 289 284 259 264 289 284 259 264 290 285 260 265 290 285 260 265 291 286 261 266 291 286 261 266 292 287 262 267 292 287 262 267 103 104 99 98 10 82 77 9 128 288 263 123 128 288 263 123 129 289 264 124 129 289 264 124 130 290 265 125 130 290 265 125 131 291 266 126 131 291 266 126 132 292 267 127 132 292 267 127 30 103 98 29 83 19 20 78 293 173 178 268 293 173 178 268 294 174 179 269 294 174 179 269 295 175 180 270 295 175 180 270 296 176 181 271 296 176 181 271 297 177 182 272 297 177 182 272 112 39 40 107 84 83 78 79 298 293 268 273 298 293 268 273 299 294 269 274 299 294 269 274 300 295 270 275 300 295 270 275 301 296 271 276 301 296 271 276 302 297 272 277 302 297 272 277 111 112 107 106 85 84 79 80 303 298 273 278 303 298 273 278 304 299 274 279 304 299 274 279 305 300 275 280 305 300 275 280 306 301 276 281 306 301 276 281 307 302 277 282 307 302 277 282 110 111 106 105 86 85 80 81 308 303 278 283 308 303 278 283 309 304 279 284 309 304 279 284 310 305 280 285 310 305 280 285 311 306 281 286 311 306 281 286 312 307 282 287 312 307 282 287 109 110 105 104 87 86 81 82 313 308 283 288 313 308 283 288 314 309 284 289 314 309 284 289 315 310 285 290 315 310 285 290 316 311 286 291 316 311 286 291 317 312 287 292 317 312 287 292 108 109 104 103 11 87 82 10 133 313 288 128 133 313 288 128 134 314 289 129 134 314 289 129 135 315 290 130 135 315 290 130 136 316 291 131 136 316 291 131 137 317 292 132 137 317 292 132 31 108 103 30 88 18 19 83 318 168 173 293 318 168 173 293 319 169 174 294 319 169 174 294 320 170 175 295 320 170 175 295 321 171 176 296 321 171 176 296 322 172 177 297 322 172 177 297 117 38 39 112 89 88 83 84 323 318 293 298 323 318 293 298 324 319 294 299 324 319 294 299 325 320 295 300 325 320 295 300 326 321 296 301 326 321 296 301 327 322 297 302 327 322 297 302 116 117 112 111 90 89 84 85 328 323 298 303 328 323 298 303 329 324 299 304 329 324 299 304 330 325 300 305 330 325 300 305 331 326 301 306 331 326 301 306 332 327 302 307 332 327 302 307 115 116 111 110 91 90 85 86 333 328 303 308 333 328 303 308 334 329 304 309 334 329 304 309 335 330 305 310 335 330 305 310 336 331 306 311 336 331 306 311 337 332 307 312 337 332 307 312 114 115 110 109 92 91 86 87 338 333 308 313 338 333 308 313 339 334 309 314 339 334 309 314 340 335 310 315 340 335 310 315 341 336 311 316 341 336 311 316 342 337 312 317 342 337 312 317 113 114 109 108 12 92 87 11 138 338 313 133 138 338 313 133 139 339 314 134 139 339 314 134 140 340 315 135 140 340 315 135 141 341 316 136 141 341 316 136 142 342 317 137 142 342 317 137 32 113 108 31 17 2 18 88 163 58 168 318 163 58 168 318 164 59 169 319 164 59 169 319 165 60 170 320 165 60 170 320 166 61 171 321 166 61 171 321 167 62 172 322 167 62 172 322 37 6 38 117 16 17 88 89 158 163 318 323 158 163 318 323 159 164 319 324 159 164 319 324 160 165 320 325 160 165 320 325 161 166 321 326 161 166 321 326 162 167 322 327 162 167 322 327 36 37 117 116 15 16 89 90 153 158 323 328 153 158 323 328 154 159 324 329 154 159 324 329 155 160 325 330 155 160 325 330 156 161 326 331 156 161 326 331 157 162 327 332 157 162 327 332 35 36 116 115 14 15 90 91 148 153 328 333 148 153 328 333 149 154 329 334 149 154 329 334 150 155 330 335 150 155 330 335 151 156 331 336 151 156 331 336 152 157 332 337 152 157 332 337 34 35 115 114 13 14 91 92 143 148 333 338 143 148 333 338 144 149 334 339 144 149 334 339 145 150 335 340 145 150 335 340 146 151 336 341 146 151 336 341 147 152 337 342 147 152 337 342 33 34 114 113 1 13 92 12 53 143 338 138 53 143 338 138 54 144 339 139 54 144 339 139 55 145 340 140 55 145 340 140 56 146 341 141 56 146 341 141 57 147 342 142 57 147 342 142 5 33 113 32 </DataArray>
<DataArray type="Int32" Name="offsets" format="ascii">
8 16 24 32 40 48 56 64 72 80 88 96 104 112 120 128 136 144 152 160 168 176 184 192 200 208 216 224 232 240 248 256 264 272 280 288 296 304 312 320 328 336 344 352 360 368 376 384 392 400 408 416 424 432 440 448 456 464 472 480 488 496 504 512 520 528 536 544 552 560 568 576 584 592 600 608 616 624 632 640 648 656 664 672 680 688 696 704 712 720 728 736 744 752 760 768 776 784 792 800 808 816 824 832 840 848 856 864 872 880 888 896 904 912 920 928 936 944 952 960 968 976 984 992 1000 1008 1016 1024 1032 1040 1048 1056 1064 1072 1080 1088 1096 1104 1112 1120 1128 1136 1144 1152 1160 1168 1176 1184 1192 1200 1208 1216 1224 1232 1240 1248 1256 1264 1272 1280 1288 1296 1304 1312 1320 1328 1336 1344 1352 1360 1368 1376 1384 1392 1400 1408 1416 1424 1432 1440 1448 1456 1464 1472 1480 1488 1496 1504 1512 1520 1528 1536 1544 1552 1560 1568 1576 1584 1592 1600 1608 1616 1624 1632 1640 1648 1656 1664 1672 1680 1688 1696 1704 1712 1720 1728 </DataArray>
<DataArray type="UInt8" Name="types" format="ascii">
12 12 12 12 12 12 12 12 12 12 12 12 12 12 12 12 12 12 12 12 12 12 12 12 12 12 12 12 12 12 12 12 12 12 12 12 12 12 12 12 12 12 12 12 12 12 12 12 12 12 12 12 12 12 12 12 12 12 12 12 12 12 12 12 12 12 12 12 12 12 12 12 12 12 12 12 12 12 12 12 12 12 12 12 12 12 12 12 12 12 12 12 12 12 12 12 12 12 12 12 12 12 12 12 12 12 12 12 12 12 12 12 12 12 12 12 12 12 12 12 12 12 12 12 12 12 12 12 12 12 12 12 12 12 12 12 12 12 12 12 12 12 12 12 12 12 12 12 12 12 12 12 12 12 12 12 12 12 12 12 12 12 12 12 12 12 12 12 12 12 12 12 12 12 12 12 12 12 12 12 12 12 12 12 12 12 12 12 12 12 12 12 12 12 12 12 12 12 12 12 12 12 12 12 12 12 12 12 12 12 12 12 12 12 12 12 </DataArray>
</Cells>
<CellData Scalars="scalars">
<DataArray type="Float32" Name="number_density" format="ascii">
8.424e+15 8.208e+15 1.0152e+16 8.856e+15 9.504e+15 9.288e+15 8.424e+15 8.424e+15 8.64e+15 1.2096e+16 9.504e+15 9.936e+15 1.2096e+16 9.072e+15 8.208e+15 7.776e+15 9.288e+15 1.296e+16 8.64e+15 1.1232e+16 1.0368e+16 6.912e+15 9.936e+15 8.856e+15 1.08e+16 7.992e+15 1.296e+16 1.1232e+16 7.128e+15 1.188e+16 1.1016e+16 9.072e+15 9.936e+15 1.0152e+16 1.0368e+16 8.208e+15 9.072e+15 9.936e+15 1.08e+16 8.64e+15 9.72e+15 9.072e+15 9.288e+15 6.912e+15 7.128e+15 1.2528e+16 1.188e+16 1.188e+16 9.72e+15 1.1664e+16 9.504e+15 1.1664e+16 1.1664e+16 9.72e+15 8.856e+15 1.188e+16 8.424e+15 9.936e+15 1.0584e+16 1.0368e+16 9.072e+15 9.288e+15 8.208e+15 1.0152e+16 8.64e+15 9.936e+15 9.936e+15 9.936e+15 1.2744e+16 7.56e+15 1.296e+16 9.72e+15 7.776e+15 1.0152e+16 1.1232e+16 8.856e+15 7.56e+15 9.504e+15 8.856e+15 9.504e+15 9.72e+15 9.936e+15 9.504e+15 9.936e+15 7.776e+15 1.0584e+16 1.2744e+16 1.0584e+16 1.3176e+16 1.1448e+16 9.72e+15 1.08e+16 1.3608e+16 1.08e+16 1.0368e+16 9.504e+15 9.072e+15 8.424e+15 8.424e+15 1.0368e+16 1.1664e+16 9.072e+15 1.08e+16 1.08e+16 8.856e+15 8.856e+15 1.1016e+16 9.072e+15 1.1016e+16 1.1664e+16 1.0584e+16 9.936e+15 1.0584e+16 1.3176e+16 1.0584e+16 9.504e+15 1.0152e+16 9.288e+15 1.1664e+16 1.0368e+16 1.0152e+16 1.1232e+16 1.1448e+16 8.424e+15 1.2096e+16 1.08e+16 8.424e+15 9.072e+15 1.0152e+16 8.856e+15 7.776e+15 1.188e+16 1.188e+16 9.288e+15 9.72e+15 1.3176e+16 1.1448e+16 8.208e+15 7.992e+15 1.0152e+16 8.208e+15 1.0584e+16 6.696e+15 9.936e+15 8.64e+15 9.72e+15 1.0368e+16 9.936e+15 9.72e+15 9.72e+15 9.936e+15 1.188e+16 9.504e+15 1.2096e+16 1.1448e+16 9.072e+15 1.0368e+16 1.1232e+16 1.08e+16 9.936e+15 8.424e+15 1.0584e+16 1.08e+16 7.776e+15 1.0368e+16 1.0584e+16 1.1016e+16 1.3608e+16 1.08e+16 1.0152e+16 8.208e+15 8.424e+15 7.992e+15 1.188e+16 1.0152e+16 8.856e+15 9.504e+15 8.424e+15 1.0368e+16 1.1232e+16 9.072e+15 1.0368e+16 1.0368e+16 1.1664e+16 8.208e+15 9.936e+15 9.504e+15 1.296e+16 9.936e+15 1.0152e+16 9.936e+15 1.0368e+16 1.0368e+16 9.936e+15 8.424e+15 1.2744e+16 9.504e+15 1.08e+16 1.1448e+16 7.56e+15 8.208e+15 1.2744e+16 9.936e+15 1.0584e+16 1.08e+16 9.72e+15 1.08e+16 1.0368e+16 9.072e+15 1.1232e+16 8.64e+15 7.344e+15 1.0152e+16 8.64e+15 9.072e+15 1.3176e+16 </DataArray>
<DataArray type="Float32" Name="potential" format="ascii">
0 0 0 0 0 0 0 0 0 0 0 0 0 0 0 0 0 0 0 0 0 0 0 0 0 0 0 0 0 0 0 0 0 0 0 0 0 0 0 0 0 0 0 0 0 0 0 0 0 0 0 0 0 0 0 0 0 0 0 0 0 0 0 0 0 0 0 0 0 0 0 0 0 0 0 0 0 0 0 0 0 0 0 0 0 0 0 0 0 0 0 0 0 0 0 0 0 0 0 0 0 0 0 0 0 0 0 0 0 0 0 0 0 0 0 0 0 0 0 0 0 0 0 0 0 0 0 0 0 0 0 0 0 0 0 0 0 0 0 0 0 0 0 0 0 0 0 0 0 0 0 0 0 0 0 0 0 0 0 0 0 0 0 0 0 0 0 0 0 0 0 0 0 0 0 0 0 0 0 0 0 0 0 0 0 0 0 0 0 0 0 0 0 0 0 0 0 0 0 0 0 0 0 0 0 0 0 0 0 0 0 0 0 0 0 0 </DataArray>
<DataArray type="Float32" Name="temperature" format="ascii">
267.029 304.182 282.277 322.753 317.191 267.032 256.44 371.734 322.726 347.468 318.808 396.278 315.153 292.244 262.827 300.212 358.976 284.443 321.872 304.216 280.153 331.303 321.137 279.937 235.117 288.384 271.558 269.789 253.231 333.934 315.555 317.379 290.824 263.399 289.739 379.222 236.019 245.252 298.152 243.703 284.205 268.039 352.224 287.749 376.41 289.363 284.183 308.256 296.384 331.235 287.466 287.176 366.482 306.31 235.159 247.718 278.948 267.3 278.707 305.893 417.166 257.681 339.229 260.705 307.469 235.036 315.965 279.137 245.227 252.529 282.184 269.977 272.121 236.019 351.027 293.509 343.498 343.05 235.468 295.907 367.517 283.649 262.708 249.273 342.473 299.727 316.206 274.466 294.908 330.972 274.961 342.526 305.193 281.933 277.681 269.464 313.209 316.722 310.005 265.914 314.701 223.432 295.825 327.189 253.314 429.583 303.601 381.487 294.5 282.623 365.481 327.307 243.277 248.574 227.53 313.579 304.677 296.601 341.457 218.485 269.769 299.079 308.644 353.449 323.975 302.852 331.092 302.452 321.686 343.259 345.472 308.335 272.133 344.154 278.884 297.147 304.862 329.023 350.257 366.837 369.02 267.447 274.928 224.179 262.822 316.171 296.417 273.095 269.96 261.003 306.32 259.935 320.407 309.275 292.185 317.678 288.517 262.992 313.118 314.08 272.413 337.145 324.594 292.895 259.536 387.529 341.024 272.72 259.722 317.5 294.679 248.792 328.002 313.862 252.121 351.71 272.168 250.372 353.69 277.553 305.152 296.948 324.47 276.747 294.528 330.798 320.668 300.526 274.343 289.141 259.524 278.279 276.607 301.68 224.245 261.51 343.716 330.607 269.648 248.673 259.808 303.748 254.145 298.731 286.232 245.996 254.041 313.383 295.48 304.373 266.395 274.128 301.933 322.752 212.046 236.524 </DataArray>
<DataArray type="Float32" Name="velocity" format="ascii">
70.868 86.5128 81.7527 72.688 65.3541 89.2093 76.2758 46.3119 132.223 140.853 114.085 81.3416 36.0426 111.199 217.144 145.299 66.9847 22.1552 65.9761 117.755 146.119 87.5394 59.7322 95.0576 68.3248 70.9142 61.8813 107.088 50.7366 82.8207 39.9825 58.8676 123.033 84.8154 103.897 76.0269 64.7038 172.172 96.2354 102.248 23.9232 68.6713 73.3691 123.371 51.4857 107.557 111.408 26.719 90.7089 100.558 182.547 180.045 68.8088 30.2057 116.786 104.862 154.387 68.2144 84.1834 40.2509 110.259 138.382 130.302 118.905 78.2033 52.7813 42.3348 81.6038 77.5012 127.027 40.6759 44.4867 114.227 84.5234 84.9951 109.948 46.8717 34.5955 129.656 109.34 204.389 94.6771 66.1718 47.2724 142.259 227.264 176.853 80.9534 83.1248 60.5769 114.955 185.861 242.569 132.34 47.5626 57.6258 71.9651 149.622 207.722 153.441 67.1362 73.1105 88.7908 116.445 34.062 49.0838 46.0932 30.0799 57.9059 80.49 111.662 145.887 56.9036 42.7608 90.8857 129.938 188.226 58.3199 26.3974 27.863 199.475 184.899 182.896 128.346 73.6654 77.9876 180.589 210.551 178.982 177.613 96.3946 75.9896 98.1029 173.572 181.927 161.256 76.8822 16.2558 134.766 123.799 120.198 108.386 84.4062 100.346 110.691 94.8493 117.637 28.8447 41.3442 31.6925 149.371 117.334 107.939 56.9378 73.2501 81.0059 137.161 115.177 127.785 97.4322 54.1586 30.8635 94.1635 118.092 147.592 121.148 120.649 35.7213 36.9691 99.4081 165.474 144.943 80.1122 45.8067 55.5019 51.8125 98.3438 57.8491 49.4672 104.918 53.1936 36.0522 71.2573 49.4079 50.6186 43.222 44.7371 132.402 51.0858 105.778 60.965 93.4296 34.8751 97.0789 68.8642 83.6518 58.6262 93.3148 60.7838 219.522 158.902 123.607 89.8646 50.1648 61.457 102.798 89.6812 101.073 59.5832 31.1373 93.4474 57.8296 108.379 57.021 74.4999 70.4244 </DataArray>
<DataArray type="Float32" Name="E_field" format="ascii">
0 0 0 0 0 0 0 0 0 0 0 0 0 0 0 0 0 0 0 0 0 0 0 0 0 0 0 0 0 0 0 0 0 0 0 0 0 0 0 0 0 0 0 0 0 0 0 0 0 0 0 0 0 0 0 0 0 0 0 0 0 0 0 0 0 0 0 0 0 0 0 0 0 0 0 0 0 0 0 0 0 0 0 0 0 0 0 0 0 0 0 0 0 0 0 0 0 0 0 0 0 0 0 0 0 0 0 0 0 0 0 0 0 0 0 0 0 0 0 0 0 0 0 0 0 0 0 0 0 0 0 0 0 0 0 0 0 0 0 0 0 0 0 0 0 0 0 0 0 0 0 0 0 0 0 0 0 0 0 0 0 0 0 0 0 0 0 0 0 0 0 0 0 0 0 0 0 0 0 0 0 0 0 0 0 0 0 0 0 0 0 0 0 0 0 0 0 0 0 0 0 0 0 0 0 0 0 0 0 0 0 0 0 0 0 0 </DataArray>
</CellData>
<PointData Scalars="number_density">
<DataArray type="Float32" Name="number_density" format="ascii">
1.1016e+16 8.64e+15 9.072e+15 8.424e+15 8.208e+15 1.3176e+16 9.936e+15 9.288e+15 1.0476e+16 1.0368e+16 9.396e+15 9.072e+15 9.396e+15 9.72e+15 1.1124e+16 1.0908e+16 9.936e+15 9.288e+15 8.856e+15 9.828e+15 9.396e+15 8.424e+15 8.748e+15 8.424e+15 1.026e+16 1.0368e+16 9.72e+15 1.0908e+16 8.964e+15 9.396e+15 9.504e+15 1.0584e+16 1.2204e+16 1.2204e+16 1.0908e+16 1.0692e+16 1.0584e+16 1.0152e+16 9.828e+15 1.1448e+16 1.134e+16 9.288e+15 9.18e+15 9.612e+15 1.1448e+16 1.0908e+16 1.0368e+16 1.0044e+16 1.0044e+16 9.504e+15 1.0044e+16 1.026e+16 9.288e+15 7.992e+15 8.748e+15 9.396e+15 8.856e+15 1.1124e+16 9.72e+15 1.0368e+16 1.1016e+16 9.936e+15 9.072e+15 8.316e+15 9.18e+15 9.504e+15 9.18e+15 9.396e+15 8.802e+15 9.882e+15 9.828e+15 9.342e+15 1.0206e+16 8.748e+15 8.91e+15 9.018e+15 9.18e+15 9.72e+15 9.558e+15 9.342e+15 9.018e+15 9.774e+15 9.936e+15 1.0044e+16 1.026e+16 9.936e+15 1.0476e+16 1.0206e+16 9.288e+15 1.0044e+16 1.0746e+16 1.0962e+16 1.0098e+16 9.936e+15 1.026e+16 1.0476e+16 1.1124e+16 1.0044e+16 9.45e+15 9.72e+15 1.026e+16 1.0746e+16 1.0098e+16 9.072e+15 9.666e+15 1.0908e+16 1.0638e+16 1.0746e+16 1.0314e+16 1.1394e+16 1.1718e+16 1.0206e+16 1.0584e+16 1.188e+16 1.1826e+16 1.1394e+16 1.0206e+16 9.774e+15 9.99e+15 1.0422e+16 1.0098e+16 1.026e+16 1.0314e+16 1.0368e+16 1.0584e+16 9.504e+15 1.0098e+16 1.0692e+16 9.936e+15 9.504e+15 9.126e+15 9.288e+15 9.18e+15 9.288e+15 9.18e+15 9.18e+15 9.018e+15 9.558e+15 8.748e+15 8.964e+15 9.18e+15 9.126e+15 1.0962e+16 9.126e+15 9.504e+15 9.99e+15 9.288e+15 1.0638e+16 9.882e+15 9.072e+15 1.053e+16 1.053e+16 1.0206e+16 9.828e+15 8.532e+15 1.053e+16 1.1232e+16 1.0206e+16 1.0692e+16 1.0314e+16 1.0314e+16 1.0584e+16 1.0152e+16 1.0476e+16 1.0908e+16 1.053e+16 9.99e+15 9.612e+15 9.45e+15 1.0206e+16 1.0584e+16 9.882e+15 9.396e+15 1.026e+16 1.0584e+16 1.0206e+16 1.0044e+16 1.08e+16 1.0152e+16 1.0908e+16 1.0152e+16 9.234e+15 1.0206e+16 9.234e+15 1.053e+16 9.882e+15 8.694e+15 8.964e+15 8.91e+15 9.774e+15 9.612e+15 9.18e+15 9.396e+15 8.37e+15 8.856e+15 9.936e+15 9.99e+15 9.558e+15 9.504e+15 8.586e+15 9.18e+15 9.666e+15 1.0422e+16 1.026e+16 9.72e+15 8.316e+15 8.478e+15 1.026e+16 9.666e+15 1.0638e+16 1.0368e+16 8.802e+15 9.45e+15 9.72e+15 9.99e+15 1.107e+16 9.72e+15 9.396e+15 8.586e+15 8.775e+15 9.855e+15 1.0341e+16 1.0098e+16 9.45e+15 8.694e+15 9.693e+15 1.08e+16 1.0854e+16 1.0395e+16 1.0044e+16 9.099e+15 9.72e+15 1.0422e+16 9.72e+15 1.0044e+16 9.774e+15 9.315e+15 9.666e+15 9.639e+15 1.0017e+16 1.0368e+16 9.774e+15 9.855e+15 8.937e+15 9.423e+15 9.855e+15 9.828e+15 9.882e+15 9.288e+15 9.72e+15 1.0476e+16 1.1367e+16 1.1151e+16 1.0125e+16 1.1151e+16 1.0908e+16 1.1097e+16 1.0854e+16 9.639e+15 9.882e+15 9.99e+15 1.0314e+16 1.0017e+16 9.666e+15 9.585e+15 9.396e+15 1.0152e+16 1.026e+16 9.882e+15 1.0314e+16 9.963e+15 9.666e+15 1.0287e+16 9.774e+15 1.0611e+16 1.0287e+16 1.0584e+16 1.1124e+16 9.72e+15 1.1205e+16 1.0827e+16 1.026e+16 1.0881e+16 9.585e+15 9.936e+15 1.0638e+16 1.0557e+16 9.99e+15 9.801e+15 9.234e+15 9.774e+15 1.0476e+16 9.639e+15 1.0368e+16 1.0422e+16 1.0233e+16 1.0584e+16 1.0719e+16 1.0611e+16 1.0719e+16 1.0206e+16 1.0422e+16 1.0557e+16 9.882e+15 1.026e+16 1.0071e+16 9.639e+15 1.0773e+16 9.774e+15 9.342e+15 9.936e+15 9.909e+15 1.0476e+16 9.909e+15 9.261e+15 9.531e+15 9.639e+15 9.72e+15 1.026e+16 1.0638e+16 1.0503e+16 1.0395e+16 9.801e+15 1.0773e+16 1.0584e+16 1.0449e+16 1.053e+16 1.0017e+16 9.936e+15 9.288e+15 1.0476e+16 1.0611e+16 1.0557e+16 9.882e+15 9.099e+15 9.963e+15 1.0017e+16 1.0665e+16 9.558e+15 9.342e+15 9.315e+15 9.045e+15 1.0503e+16 </DataArray>
<DataArray type="Float32" Name="potential" format="ascii">
0 0 0 0 0 0 0 0 0 0 0 0 0 0 0 0 0 0 0 0 0 0 0 0 0 0 0 0 0 0 0 0 0 0 0 0 0 0 0 0 0 0 0 0 0 0 0 0 0 0 0 0 0 0 0 0 0 0 0 0 0 0 0 0 0 0 0 0 0 0 0 0 0 0 0 0 0 0 0 0 0 0 0 0 0 0 0 0 0 0 0 0 0 0 0 0 0 0 0 0 0 0 0 0 0 0 0 0 0 0 0 0 0 0 0 0 0 0 0 0 0 0 0 0 0 0 0 0 0 0 0 0 0 0 0 0 0 0 0 0 0 0 0 0 0 0 0 0 0 0 0 0 0 0 0 0 0 0 0 0 0 0 0 0 0 0 0 0 0 0 0 0 0 0 0 0 0 0 0 0 0 0 0 0 0 0 0 0 0 0 0 0 0 0 0 0 0 0 0 0 0 0 0 0 0 0 0 0 0 0 0 0 0 0 0 0 0 0 0 0 0 0 0 0 0 0 0 0 0 0 0 0 0 0 0 0 0 0 0 0 0 0 0 0 0 0 0 0 0 0 0 0 0 0 0 0 0 0 0 0 0 0 0 0 0 0 0 0 0 0 0 0 0 0 0 0 0 0 0 0 0 0 0 0 0 0 0 0 0 0 0 0 0 0 0 0 0 0 0 0 0 0 0 0 0 0 0 0 0 0 0 0 0 0 0 0 0 0 0 0 0 0 0 0 0 0 0 0 0 0 0 0 0 0 0 0 0 0 0 0 0 0 0 </DataArray>
<DataArray type="Float32" Name="temperature" format="ascii">