<VTKFile type="UnstructuredGrid" version="0.1" byte_order="LittleEndian">
<UnstructuredGrid>
<Piece NumberOfPoints="343" NumberOfCells="216">
<Points>
<DataArray type="Float32" NumberOfComponents="3" format="ascii">
-0.05 -0.05 -0.05 0.05 -0.05 -0.05 0.05 0.05 -0.05 -0.05 0.05 -0.05 -0.05 -0.05 0.05 0.05 -0.05 0.05 0.05 0.05 0.05 -0.05 0.05 0.05 -0.0333333 -0.05 -0.05 -0.0166667 -0.05 -0.05 0 -0.05 -0.05 0.0166667 -0.05 -0.05 0.0333333 -0.05 -0.05 0.05 -0.0333333 -0.05 0.05 -0.0166667 -0.05 0.05 0 -0.05 0.05 0.0166667 -0.05 0.05 0.0333333 -0.05 0.0333333 0.05 -0.05 0.0166667 0.05 -0.05 0 0.05 -0.05 -0.0166667 0.05 -0.05 -0.0333333 0.05 -0.05 -0.05 0.0333333 -0.05 -0.05 0.0166667 -0.05 -0.05 0 -0.05 -0.05 -0.0166667 -0.05 -0.05 -0.0333333 -0.05 -0.0333333 -0.05 0.05 -0.0166667 -0.05 0.05 0 -0.05 0.05 0.0166667 -0.05 0.05 0.0333333 -0.05 0.05 0.05 -0.0333333 0.05 0.05 -0.0166667 0.05 0.05 0 0.05 0.05 0.0166667 0.05 0.05 0.0333333 0.05 0.0333333 0.05 0.05 0.0166667 0.05 0.05 0 0.05 0.05 -0.0166667 0.05 0.05 -0.0333333 0.05 0.05 -0.05 0.0333333 0.05 -0.05 0.0166667 0.05 -0.05 0 0.05 -0.05 -0.0166667 0.05 -0.05 -0.0333333 0.05 -0.05 -0.05 -0.0333333 -0.05 -0.05 -0.0166667 -0.05 -0.05 0 -0.05 -0.05 0.0166667 -0.05 -0.05 0.0333333 0.05 -0.05 -0.0333333 0.05 -0.05 -0.0166667 0.05 -0.05 0 0.05 -0.05 0.0166667 0.05 -0.05 0.0333333 0.05 0.05 -0.0333333 0.05 0.05 -0.0166667 0.05 0.05 0 0.05 0.05 0.0166667 0.05 0.05 0.0333333 -0.05 0.05 -0.0333333 -0.05 0.05 -0.0166667 -0.05 0.05 0 -0.05 0.05 0.0166667 -0.05 0.05 0.0333333 -0.0333333 0.0333333 -0.05 -0.0333333 0.0166667 -0.05 -0.0333333 -3.55271e-18 -0.05 -0.0333333 -0.0166667 -0.05 -0.0333333 -0.0333333 -0.05 -0.0166667 0.0333333 -0.05 -0.0166667 0.0166667 -0.05 -0.0166667 -7.10543e-18 -0.05 -0.0166667 -0.0166667 -0.05 -0.0166667 -0.0333333 -0.05 1.77636e-18 0.0333333 -0.05 5.32907e-18 0.0166667 -0.05 3.55271e-18 -1.77636e-18 -0.05 7.10543e-18 -0.0166667 -0.05 3.55271e-18 -0.0333333 -0.05 0.0166667 0.0333333 -0.05 0.0166667 0.0166667 -0.05 0.0166667 -7.10543e-18 -0.05 0.0166667 -0.0166667 -0.05 0.0166667 -0.0333333 -0.05 0.0333333 0.0333333 -0.05 0.0333333 0.0166667 -0.05 0.0333333 -1.77636e-18 -0.05 0.0333333 -0.0166667 -0.05 0.0333333 -0.0333333 -0.05 -0.0333333 -0.0333333 0.05 -0.0333333 -0.0166667 0.05 -0.0333333 0 0.05 -0.0333333 0.0166667 0.05 -0.0333333 0.0333333 0.05 -0.0166667 -0.0333333 0.05 -0.0166667 -0.0166667 0.05 -0.0166667 0 0.05 -0.0166667 0.0166667 0.05 -0.0166667 0.0333333 0.05 0 -0.0333333 0.05 0 -0.0166667 0.05 0 0 0.05 0 0.0166667 0.05 0 0.0333333 0.05 0.0166667 -0.0333333 0.05 0.0166667 -0.0166667 0.05 0.0166667 0 0.05 0.0166667 0.0166667 0.05 0.0166667 0.0333333 0.05 0.0333333 -0.0333333 0.05 0.0333333 -0.0166667 0.05 0.0333333 1.77636e-18 0.05 0.0333333 0.0166667 0.05 0.0333333 0.0333333 0.05 -0.0333333 -0.05 -0.0333333 -0.0333333 -0.05 -0.0166667 -0.0333333 -0.05 0 -0.0333333 -0.05 0.0166667 -0.0333333 -0.05 0.0333333 -0.0166667 -0.05 -0.0333333 -0.0166667 -0.05 -0.0166667 -0.0166667 -0.05 0 -0.0166667 -0.05 0.0166667 -0.0166667 -0.05 0.0333333 0 -0.05 -0.0333333 0 -0.05 -0.0166667 0 -0.05 0 0 -0.05 0.0166667 0 -0.05 0.0333333 0.0166667 -0.05 -0.0333333 0.0166667 -0.05 -0.0166667 0.0166667 -0.05 0 0.0166667 -0.05 0.0166667 0.0166667 -0.05 0.0333333 0.0333333 -0.05 -0.0333333 0.0333333 -0.05 -0.0166667 0.0333333 -0.05 1.77636e-18 0.0333333 -0.05 0.0166667 0.0333333 -0.05 0.0333333 0.05 -0.0333333 -0.0333333 0.05 -0.0333333 -0.0166667 0.05 -0.0333333 0 0.05 -0.0333333 0.0166667 0.05 -0.0333333 0.0333333 0.05 -0.0166667 -0.0333333 0.05 -0.0166667 -0.0166667 0.05 -0.0166667 0 0.05 -0.0166667 0.0166667 0.05 -0.0166667 0.0333333 0.05 0 -0.0333333 0.05 0 -0.0166667 0.05 0 0 0.05 0 0.0166667 0.05 0 0.0333333 0.05 0.0166667 -0.0333333 0.05 0.0166667 -0.0166667 0.05 0.0166667 0 0.05 0.0166667 0.0166667 0.05 0.0166667 0.0333333 0.05 0.0333333 -0.0333333 0.05 0.0333333 -0.0166667 0.05 0.0333333 1.77636e-18 0.05 0.0333333 0.0166667 0.05 0.0333333 0.0333333 0.0333333 0.05 -0.0333333 0.0333333 0.05 -0.0166667 0.0333333 0.05 0 0.0333333 0.05 0.0166667 0.0333333 0.05 0.0333333 0.0166667 0.05 -0.0333333 0.0166667 0.05 -0.0166667 0.0166667 0.05 0 0.0166667 0.05 0.0166667 0.0166667 0.05 0.0333333 0 0.05 -0.0333333 0 0.05 -0.0166667 0 0.05 0 0 0.05 0.0166667 0 0.05 0.0333333 -0.0166667 0.05 -0.0333333 -0.0166667 0.05 -0.0166667 -0.0166667 0.05 0 -0.0166667 0.05 0.0166667 -0.0166667 0.05 0.0333333 -0.0333333 0.05 -0.0333333 -0.0333333 0.05 -0.0166667 -0.0333333 0.05 1.77636e-18 -0.0333333 0.05 0.0166667 -0.0333333 0.05 0.0333333 -0.05 0.0333333 -0.0333333 -0.05 0.0333333 -0.0166667 -0.05 0.0333333 0 -0.05 0.0333333 0.0166667 -0.05 0.0333333 0.0333333 -0.05 0.0166667 -0.0333333 -0.05 0.0166667 -0.0166667 -0.05 0.0166667 0 -0.05 0.0166667 0.0166667 -0.05 0.0166667 0.0333333 -0.05 0 -0.0333333 -0.05 0 -0.0166667 -0.05 0 0 -0.05 0 0.0166667 -0.05 0 0.0333333 -0.05 -0.0166667 -0.0333333 -0.05 -0.0166667 -0.0166667 -0.05 -0.0166667 0 -0.05 -0.0166667 0.0166667 -0.05 -0.0166667 0.0333333 -0.05 -0.0333333 -0.0333333 -0.05 -0.0333333 -0.0166667 -0.05 -0.0333333 1.77636e-18 -0.05 -0.0333333 0.0166667 -0.05 -0.0333333 0.0333333 -0.0333333 0.0333333 -0.0333333 -0.0333333 0.0333333 -0.0166667 -0.0333333 0.0333333 4.44089e-19 -0.0333333 0.0333333 0.0166667 -0.0333333 0.0333333 0.0333333 -0.0333333 0.0166667 -0.0333333 -0.0333333 0.0166667 -0.0166667 -0.0333333 0.0166667 -4.44089e-18 -0.0333333 0.0166667 0.0166667 -0.0333333 0.0166667 0.0333333 -0.0333333 -6.66134e-18 -0.0333333 -0.0333333 -9.76996e-18 -0.0166667 -0.0333333 -1.77636e-18 -1.77636e-18 -0.0333333 -1.77636e-18 0.0166667 -0.0333333 3.55271e-18 0.0333333 -0.0333333 -0.0166667 -0.0333333 -0.0333333 -0.0166667 -0.0166667 -0.0333333 -0.0166667 1.77636e-18 -0.0333333 -0.0166667 0.0166667 -0.0333333 -0.0166667 0.0333333 -0.0333333 -0.0333333 -0.0333333 -0.0333333 -0.0333333 -0.0166667 -0.0333333 -0.0333333 0 -0.0333333 -0.0333333 0.0166667 -0.0333333 -0.0333333 0.0333333 -0.0166667 0.0333333 -0.0333333 -0.0166667 0.0333333 -0.0166667 -0.0166667 0.0333333 2.66454e-18 -0.0166667 0.0333333 0.0166667 -0.0166667 0.0333333 0.0333333 -0.0166667 0.0166667 -0.0333333 -0.0166667 0.0166667 -0.0166667 -0.0166667 0.0166667 -1.77636e-18 -0.0166667 0.0166667 0.0166667 -0.0166667 0.0166667 0.0333333 -0.0166667 -1.06581e-17 -0.0333333 -0.0166667 -1.15463e-17 -0.0166667 -0.0166667 -3.55271e-18 0 -0.0166667 -8.88178e-18 0.0166667 -0.0166667 -1.77636e-18 0.0333333 -0.0166667 -0.0166667 -0.0333333 -0.0166667 -0.0166667 -0.0166667 -0.0166667 -0.0166667 3.55271e-18 -0.0166667 -0.0166667 0.0166667 -0.0166667 -0.0166667 0.0333333 -0.0166667 -0.0333333 -0.0333333 -0.0166667 -0.0333333 -0.0166667 -0.0166667 -0.0333333 0 -0.0166667 -0.0333333 0.0166667 -0.0166667 -0.0333333 0.0333333 3.44169e-18 0.0333333 -0.0333333 1.02141e-17 0.0333333 -0.0166667 2.66454e-18 0.0333333 -8.88178e-19 6.21725e-18 0.0333333 0.0166667 1.33227e-18 0.0333333 0.0333333 7.99361e-18 0.0166667 -0.0333333 8.43769e-18 0.0166667 -0.0166667 8.88178e-19 0.0166667 8.88178e-19 7.99361e-18 0.0166667 0.0166667 3.55271e-18 0.0166667 0.0333333 3.55271e-18 -1.77636e-18 -0.0333333 9.76996e-18 -9.76996e-18 -0.0166667 0 -8.88178e-19 -8.88178e-19 8.88178e-18 -8.88178e-18 0.0166667 1.77636e-18 -1.77636e-18 0.0333333 1.02141e-17 -0.0166667 -0.0333333 1.24345e-17 -0.0166667 -0.0166667 3.55271e-18 -0.0166667 -1.77636e-18 8.88178e-18 -0.0166667 0.0166667 3.55271e-18 -0.0166667 0.0333333 5.77316e-18 -0.0333333 -0.0333333 4.44089e-18 -0.0333333 -0.0166667 1.77636e-18 -0.0333333 1.77636e-18 5.32907e-18 -0.0333333 0.0166667 0 -0.0333333 0.0333333 0.0166667 0.0333333 -0.0333333 0.0166667 0.0333333 -0.0166667 0.0166667 0.0333333 -2.66454e-18 0.0166667 0.0333333 0.0166667 0.0166667 0.0333333 0.0333333 0.0166667 0.0166667 -0.0333333 0.0166667 0.0166667 -0.0166667 0.0166667 0.0166667 3.10862e-18 0.0166667 0.0166667 0.0166667 0.0166667 0.0166667 0.0333333 0.0166667 -1.24345e-17 -0.0333333 0.0166667 -1.37668e-17 -0.0166667 0.0166667 -3.55271e-18 -1.77636e-18 0.0166667 -6.21725e-18 0.0166667 0.0166667 -8.88178e-19 0.0333333 0.0166667 -0.0166667 -0.0333333 0.0166667 -0.0166667 -0.0166667 0.0166667 -0.0166667 2.66454e-18 0.0166667 -0.0166667 0.0166667 0.0166667 -0.0166667 0.0333333 0.0166667 -0.0333333 -0.0333333 0.0166667 -0.0333333 -0.0166667 0.0166667 -0.0333333 0 0.0166667 -0.0333333 0.0166667 0.0166667 -0.0333333 0.0333333 0.0333333 0.0333333 -0.0333333 0.0333333 0.0333333 -0.0166667 0.0333333 0.0333333 3.33067e-19 0.0333333 0.0333333 0.0166667 0.0333333 0.0333333 0.0333333 0.0333333 0.0166667 -0.0333333 0.0333333 0.0166667 -0.0166667 0.0333333 0.0166667 1.11022e-18 0.0333333 0.0166667 0.0166667 0.0333333 0.0166667 0.0333333 0.0333333 -4.44089e-18 -0.0333333 0.0333333 -4.21885e-18 -0.0166667 0.0333333 8.88178e-19 8.88178e-19 0.0333333 -1.33227e-18 0.0166667 0.0333333 3.55271e-18 0.0333333 0.0333333 -0.0166667 -0.0333333 0.0333333 -0.0166667 -0.0166667 0.0333333 -0.0166667 2.22045e-18 0.0333333 -0.0166667 0.0166667 0.0333333 -0.0166667 0.0333333 0.0333333 -0.0333333 -0.0333333 0.0333333 -0.0333333 -0.0166667 0.0333333 -0.0333333 2.22045e-18 0.0333333 -0.0333333 0.0166667 0.0333333 -0.0333333 0.0333333 </DataArray>
</Points>
<Cells>
<DataArray type="Int32" Name="connectivity" format="ascii">
68 22 3 23 218 188 63 193 218 188 63 193 219 189 64 194 219 189 64 194 220 190 65 195 220 190 65 195 221 191 66 196 221 191 66 196 222 192 67 197 222 192 67 197 97 42 7 43 69 68 23 24 223 218 193 198 223 218 193 198 224 219 194 199 224 219 194 199 225 220 195 200 225 220 195 200 226 221 196 201 226 221 196 201 227 222 197 202 227 222 197 202 96 97 43 44 70 69 24 25 228 223 198 203 228 223 198 203 229 224 199 204 229 224 199 204 230 225 200 205 230 225 200 205 231 226 201 206 231 226 201 206 232 227 202 207 232 227 202 207 95 96 44 45 71 70 25 26 233 228 203 208 233 228 203 208 234 229 204 209 234 229 204 209 235 230 205 210 235 230 205 210 236 231 206 211 236 231 206 211 237 232 207 212 237 232 207 212 94 95 45 46 72 71 26 27 238 233 208 213 238 233 208 213 239 234 209 214 239 234 209 214 240 235 210 215 240 235 210 215 241 236 211 216 241 236 211 216 242 237 212 217 242 237 212 217 93 94 46 47 8 72 27 0 118 238 213 48 118 238 213 48 119 239 214 49 119 239 214 49 120 240 215 50 120 240 215 50 121 241 216 51 121 241 216 51 122 242 217 52 122 242 217 52 28 93 47 4 73 21 22 68 243 183 188 218 243 183 188 218 244 184 189 219 244 184 189 219 245 185 190 220 245 185 190 220 246 186 191 221 246 186 191 221 247 187 192 222 247 187 192 222 102 41 42 97 74 73 68 69 248 243 218 223 248 243 218 223 249 244 219 224 249 244 219 224 250 245 220 225 250 245 220 225 251 246 221 226 251 246 221 226 252 247 222 227 252 247 222 227 101 102 97 96 75 74 69 70 253 248 223 228 253 248 223 228 254 249 224 229 254 249 224 229 255 250 225 230 255 250 225 230 256 251 226 231 256 251 226 231 257 252 227 232 257 252 227 232 100 101 96 95 76 75 70 71 258 253 228 233 258 253 228 233 259 254 229 234 259 254 229 234 260 255 230 235 260 255 230 235 261 256 231 236 261 256 231 236 262 257 232 237 262 257 232 237 99 100 95 94 77 76 71 72 263 258 233 238 263 258 233 238 264 259 234 239 264 259 234 239 265 260 235 240 265 260 235 240 266 261 236 241 266 261 236 241 267 262 237 242 267 262 237 242 98 99 94 93 9 77 72 8 123 263 238 118 123 263 238 118 124 264 239 119 124 264 239 119 125 265 240 120 125 265 240 120 126 266 241 121 126 266 241 121 127 267 242 122 127 267 242 122 29 98 93 28 78 20 21 73 268 178 183 243 268 178 183 243 269 179 184 244 269 179 184 244 270 180 185 245 270 180 185 245 271 181 186 246 271 181 186 246 272 182 187 247 272 182 187 247 107 40 41 102 79 78 73 74 273 268 243 248 273 268 243 248 274 269 244 249 274 269 244 249 275 270 245 250 275 270 245 250 276 271 246 251 276 271 246 251 277 272 247 252 277 272 247 252 106 107 102 101 80 79 74 75 278 273 248 253 278 273 248 253 279 274 249 254 279 274 249 254 280 275 250 255 280 275 250 255 281 276 251 256 281 276 251 256 282 277 252 257 282 277 252 257 105 106 101 100 81 80 75 76 283 278 253 258 283 278 253 258 284 279 254 259 284 279 254 259 285 280 255 260 285 280 255 260 286 281 256 261 286 281 256 261 287 282 257 262 287 282 257 262 104 105 100 99 82 81 76 77 288 283 258 263 288 283 258 263 289 284 259 264 289 284 259 264 290 285 260 265 290 285 260 265 291 286 261 266 291 286 261 266 292 287 262 267 292 287 262 267 103 104 99 98 10 82 77 9 128 288 263 123 128 288 263 123 129 289 264 124 129 289 264 124 130 290 265 125 130 290 265 125 131 291 266 126 131 291 266 126 132 292 267 127 132 292 267 127 30 103 98 29 83 19 20 78 293 173 178 268 293 173 178 268 294 174 179 269 294 174 179 269 295 175 180 270 295 175 180 270 296 176 181 271 296 176 181 271 297 177 182 272 297 177 182 272 112 39 40 107 84 83 78 79 298 293 268 273 298 293 268 273 299 294 269 274 299 294 269 274 300 295 270 275 300 295 270 275 301 296 271 276 301 296 271 276 302 297 272 277 302 297 272 277 111 112 107 106 85 84 79 80 303 298 273 278 303 298 273 278 304 299 274 279 304 299 274 279 305 300 275 280 305 300 275 280 306 301 276 281 306 301 276 281 307 302 277 282 307 302 277 282 110 111 106 105 86 85 80 81 308 303 278 283 308 303 278 283 309 304 279 284 309 304 279 284 310 305 280 285 310 305 280 285 311 306 281 286 311 306 281 286 312 307 282 287 312 307 282 287 109 110 105 104 87 86 81 82 313 308 283 288 313 308 283 288 314 309 284 289 314 309 284 289 315 310 285 290 315 310 285 290 316 311 286 291 316 311 286 291 317 312 287 292 317 312 287 292 108 109 104 103 11 87 82 10 133 313 288 128 133 313 288 128 134 314 289 129 134 314 289 129 135 315 290 130 135 315 290 130 136 316 291 131 136 316 291 131 137 317 292 132 137 317 292 132 31 108 103 30 88 18 19 83 318 168 173 293 318 168 173 293 319 169 174 294 319 169 174 294 320 170 175 295 320 170 175 295 321 171 176 296 321 171 176 296 322 172 177 297 322 172 177 297 117 38 39 112 89 88 83 84 323 318 293 298 323 318 293 298 324 319 294 299 324 319 294 299 325 320 295 300 325 320 295 300 326 321 296 301 326 321 296 301 327 322 297 302 327 322 297 302 116 117 112 111 90 89 84 85 328 323 298 303 328 323 298 303 329 324 299 304 329 324 299 304 330 325 300 305 330 325 300 305 331 326 301 306 331 326 301 306 332 327 302 307 332 327 302 307 115 116 111 110 91 90 85 86 333 328 303 308 333 328 303 308 334 329 304 309 334 329 304 309 335 330 305 310 335 330 305 310 336 331 306 311 336 331 306 311 337 332 307 312 337 332 307 312 114 115 110 109 92 91 86 87 338 333 308 313 338 333 308 313 339 334 309 314 339 334 309 314 340 335 310 315 340 335 310 315 341 336 311 316 341 336 311 316 342 337 312 317 342 337 312 317 113 114 109 108 12 92 87 11 138 338 313 133 138 338 313 133 139 339 314 134 139 339 314 134 140 340 315 135 140 340 315 135 141 341 316 136 141 341 316 136 142 342 317 137 142 342 317 137 32 113 108 31 17 2 18 88 163 58 168 318 163 58 168 318 164 59 169 319 164 59 169 319 165 60 170 320 165 60 170 320 166 61 171 321 166 61 171 321 167 62 172 322 167 62 172 322 37 6 38 117 16 17 88 89 158 163 318 323 158 163 318 323 159 164 319 324 159 164 319 324 160 165 320 325 160 165 320 325 161 166 321 326 161 166 321 326 162 167 322 327 162 167 322 327 36 37 117 116 15 16 89 90 153 158 323 328 153 158 323 328 154 159 324 329 154 159 324 329 155 160 325 330 155 160 325 330 156 161 326 331 156 161 326 331 157 162 327 332 157 162 327 332 35 36 116 115 14 15 90 91 148 153 328 333 148 153 328 333 149 154 329 334 149 154 329 334 150 155 330 335 150 155 330 335 151 156 331 336 151 156 331 336 152 157 332 337 152 157 332 337 34 35 115 114 13 14 91 92 143 148 333 338 143 148 333 338 144 149 334 339 144 149 334 339 145 150 335 340 145 150 335 340 146 151 336 341 146 151 336 341 147 152 337 342 147 152 337 342 33 34 114 113 1 13 92 12 53 143 338 138 53 143 338 138 54 144 339 139 54 144 339 139 55 145 340 140 55 145 340 140 56 146 341 141 56 146 341 141 57 147 342 142 57 147 342 142 5 33 113 32 </DataArray>
<DataArray type="Int32" Name="offsets" format="ascii">
8 16 24 32 40 48 56 64 72 80 88 96 104 112 120 128 136 144 152 160 168 176 184 192 200 208 216 224 232 240 248 256 264 272 280 288 296 304 312 320 328 336 344 352 360 368 376 384 392 400 408 416 424 432 440 448 456 464 472 480 488 496 504 512 520 528 536 544 552 560 568 576 584 592 600 608 616 624 632 640 648 656 664 672 680 688 696 704 712 720 728 736 744 752 760 768 776 784 792 800 808 816 824 832 840 848 856 864 872 880 888 896 904 912 920 928 936 944 952 960 968 976 984 992 1000 1008 1016 1024 1032 1040 1048 1056 1064 1072 1080 1088 1096 1104 1112 1120 1128 1136 1144 1152 1160 1168 1176 1184 1192 1200 1208 1216 1224 1232 1240 1248 1256 1264 1272 1280 1288 1296 1304 1312 1320 1328 1336 1344 1352 1360 1368 1376 1384 1392 1400 1408 1416 1424 1432 1440 1448 1456 1464 1472 1480 1488 1496 1504 1512 1520 1528 1536 1544 1552 1560 1568 1576 1584 1592 1600 1608 1616 1624 1632 1640 1648 1656 1664 1672 1680 1688 1696 1704 1712 1720 1728 </DataArray>
<DataArray type="UInt8" Name="types" format="ascii">
12 12 12 12 12 12 12 12 12 12 12 12 12 12 12 12 12 12 12 12 12 12 12 12 12 12 12 12 12 12 12 12 12 12 12 12 12 12 12 12 12 12 12 12 12 12 12 12 12 12 12 12 12 12 12 12 12 12 12 12 12 12 12 12 12 12 12 12 12 12 12 12 12 12 12 12 12 12 12 12 12 12 12 12 12 12 12 12 12 12 12 12 12 12 12 12 12 12 12 12 12 12 12 12 12 12 12 12 12 12 12 12 12 12 12 12 12 12 12 12 12 12 12 12 12 12 12 12 12 12 12 12 12 12 12 12 12 12 12 12 12 12 12 12 12 12 12 12 12 12 12 12 12 12 12 12 12 12 12 12 12 12 12 12 12 12 12 12 12 12 12 12 12 12 12 12 12 12 12 12 12 12 12 12 12 12 12 12 12 12 12 12 12 12 12 12 12 12 12 12 12 12 12 12 12 12 12 12 12 12 12 12 12 12 12 12 </DataArray>
</Cells>
<CellData Scalars="scalars">
<DataArray type="Float32" Name="number_density" format="ascii">
7.128e+15 6.264e+15 8.208e+15 7.56e+15 7.56e+15 8.64e+15 5.4e+15 9.288e+15 6.264e+15 6.048e+15 9.936e+15 7.992e+15 7.344e+15 7.56e+15 5.616e+15 6.048e+15 6.48e+15 1.0368e+16 6.264e+15 9.504e+15 5.4e+15 6.696e+15 9.288e+15 9.936e+15 7.344e+15 5.832e+15 9.936e+15 1.08e+16 6.696e+15 8.208e+15 9.72e+15 6.264e+15 7.344e+15 5.832e+15 6.696e+15 6.696e+15 6.264e+15 6.264e+15 9.504e+15 9.072e+15 9.504e+15 7.344e+15 4.536e+15 6.48e+15 1.1016e+16 1.728e+16 1.4472e+16 1.2312e+16 5.832e+15 1.0152e+16 1.3392e+16 1.5984e+16 1.512e+16 9.936e+15 4.536e+15 9.72e+15 1.1232e+16 1.3824e+16 1.1448e+16 8.208e+15 6.696e+15 7.344e+15 1.2312e+16 1.3608e+16 9.504e+15 1.1448e+16 7.776e+15 9.288e+15 8.208e+15 1.0368e+16 6.696e+15 8.208e+15 5.184e+15 7.776e+15 9.936e+15 1.2744e+16 1.1664e+16 1.08e+16 5.184e+15 1.0152e+16 1.3392e+16 2.2896e+16 1.8576e+16 1.2744e+16 3.672e+15 9.936e+15 1.5336e+16 4.104e+16 3.4128e+16 1.4256e+16 4.104e+15 8.856e+15 1.2096e+16 2.5272e+16 2.2464e+16 9.936e+15 6.48e+15 1.1016e+16 1.2312e+16 1.3824e+16 1.4688e+16 9.504e+15 4.32e+15 7.128e+15 7.344e+15 7.776e+15 8.64e+15 8.208e+15 5.616e+15 8.424e+15 7.344e+15 1.1016e+16 8.64e+15 1.188e+16 7.776e+15 9.072e+15 1.1232e+16 2.3544e+16 1.836e+16 1.3824e+16 3.456e+15 9.288e+15 1.728e+16 3.6288e+16 2.8944e+16 1.4472e+16 5.184e+15 9.504e+15 1.3824e+16 2.3112e+16 1.944e+16 1.0368e+16 6.48e+15 8.424e+15 9.936e+15 1.1448e+16 1.0584e+16 1.1016e+16 5.832e+15 7.128e+15 6.48e+15 7.56e+15 7.992e+15 9.504e+15 7.128e+15 8.208e+15 1.08e+16 1.296e+16 1.1232e+16 1.0368e+16 7.344e+15 8.208e+15 1.3608e+16 1.2528e+16 1.5768e+16 8.856e+15 5.832e+15 1.1448e+16 1.3824e+16 1.8576e+16 1.6416e+16 1.0368e+16 6.696e+15 1.0152e+16 1.1016e+16 1.0584e+16 1.5336e+16 1.1448e+16 6.264e+15 9.288e+15 8.64e+15 8.856e+15 8.64e+15 7.776e+15 6.048e+15 6.048e+15 6.264e+15 7.344e+15 9.288e+15 9.504e+15 8.424e+15 7.344e+15 8.856e+15 8.64e+15 8.64e+15 1.0152e+16 6.048e+15 7.992e+15 9.072e+15 9.72e+15 1.1448e+16 7.56e+15 6.048e+15 8.424e+15 9.936e+15 8.64e+15 1.0368e+16 9.288e+15 5.184e+15 4.752e+15 6.048e+15 6.696e+15 6.48e+15 8.64e+15 6.912e+15 8.208e+15 7.128e+15 5.832e+15 8.424e+15 9.504e+15 8.856e+15 6.048e+15 6.048e+15 7.344e+15 8.424e+15 9.504e+15 </DataArray>
<DataArray type="Float32" Name="potential" format="ascii">
0 0 0 0 0 0 0 0 0 0 0 0 0 0 0 0 0 0 0 0 0 0 0 0 0 0 0 0 0 0 0 0 0 0 0 0 0 0 0 0 0 0 0 0 0 0 0 0 0 0 0 0 0 0 0 0 0 0 0 0 0 0 0 0 0 0 0 0 0 0 0 0 0 0 0 0 0 0 0 0 0 0 0 0 0 0 0 0 0 0 0 0 0 0 0 0 0 0 0 0 0 0 0 0 0 0 0 0 0 0 0 0 0 0 0 0 0 0 0 0 0 0 0 0 0 0 0 0 0 0 0 0 0 0 0 0 0 0 0 0 0 0 0 0 0 0 0 0 0 0 0 0 0 0 0 0 0 0 0 0 0 0 0 0 0 0 0 0 0 0 0 0 0 0 0 0 0 0 0 0 0 0 0 0 0 0 0 0 0 0 0 0 0 0 0 0 0 0 0 0 0 0 0 0 0 0 0 0 0 0 0 0 0 0 0 0 </DataArray>
<DataArray type="Float32" Name="temperature" format="ascii">
262.591 311.525 296.309 303.466 298.905 284.075 164.744 279.233 300.678 359.253 390.903 284.854 216.365 242.601 428.081 509.719 358.277 267.279 258.829 301.238 303.466 361.936 346.862 321.072 200.872 225.383 287.734 241.732 311.81 249.574 234.388 318.108 287.953 296.55 242.463 249.747 197.672 250.316 350.65 365.38 260.76 322.58 207.862 350.876 465.802 461.336 384.59 337.246 291.114 389.843 456.979 488.984 517.338 306.682 286.64 300.138 370.597 514.048 363.87 330.067 338.798 310.615 371.94 392.461 335.464 259.312 242.455 270.044 224.731 364.394 206.147 264.332 279.903 286.955 290.735 378.264 316.013 353.874 239.672 336.232 540.939 644.157 524.694 335.026 291.139 368.979 561.106 864.251 754.628 407.557 377.975 332.443 476.18 688.659 651.487 388.503 415.653 323.76 350.672 490.823 339.73 277.289 293.899 293.403 252.734 324.815 318.988 280.379 186.722 230.749 326.047 437.978 334.45 278.685 273.257 317.911 477.987 660.168 493.75 339.273 283.853 248.898 524.535 838.018 700.864 383.502 356.275 360.418 641.468 661.682 644.402 289.703 262.618 359.069 391.969 378.125 388.717 280.784 331.594 240.484 436.669 292.636 351.889 292.154 255.681 298.642 358.581 371.951 273.359 228.48 253.87 301.543 377.589 353.846 426.349 286.371 300.159 303.547 402.259 496.922 386.018 335.691 255.3 380.211 428.771 503.931 400.34 371.651 298.162 301.679 248.355 383.421 363.825 221.08 242.667 196.639 349.805 302.208 272.65 237.643 296.855 250.208 231.212 347.782 258.043 327.969 291.048 312.758 267.77 318.923 343.249 290.427 231.793 297.386 335.058 371.301 353.133 297.518 239.587 237.169 266.172 270.461 260.072 245.849 271.221 237.166 266.495 337.991 255.707 291.033 243.63 255.683 267.879 225.663 227.256 223.728 </DataArray>
<DataArray type="Float32" Name="velocity" format="ascii">
140.063 221.632 311.699 257.601 127.566 54.3739 304.838 337.662 453.068 396.958 142.093 163.264 284.128 422.094 615.521 362.107 252.789 136.279 277.964 439.724 478.465 453.986 302.608 219.937 193.535 301.508 322.621 342.445 224.654 201.937 107.137 165.936 242.079 220.679 195.55 182.931 201.395 387.456 434.418 341.719 225.139 112.066 317.34 509.318 637.191 529.19 378.211 179.804 472.66 730.449 822.91 677.247 407.164 252.048 519.21 664.416 759.231 704.832 374.886 332.912 310.826 505.071 627.404 506.665 367.047 220.372 156.562 315.15 332.194 333.043 180.746 124.084 383.648 517.256 586.469 489.087 145.059 111.714 457.411 753.741 823.348 648.702 286.425 123.843 611.446 973.816 1159.5 855.376 396.267 226.521 555.751 854.066 1079.61 904.469 469.421 217.202 401.729 614.121 763.63 678.446 483.472 292.37 230.539 434.167 466.779 345.26 163.838 161.563 332.845 457.878 542.933 409.326 134.115 30.4776 423.041 722.287 831.192 593.677 211.439 96.7784 537.078 977.907 1115.37 831.065 268.949 129.031 591.458 919.879 1063.7 904.858 486.11 289.274 439.828 713.984 887.287 716.28 464.595 304.541 283.297 431.119 525.051 462.821 276.008 114.743 244.983 340.575 352.652 253.843 57.1972 76.0994 281.15 516.876 657.875 488.04 220.887 123.642 418.131 698.824 865.416 649.01 278.036 212.747 424.561 731.973 854.946 779.97 462.321 248.053 263.305 558.344 667.658 627.784 367.574 272.124 251.994 320.452 443.987 297.271 319.333 142.554 104.668 155.316 231.477 197.215 53.183 134.275 184.334 321.46 397.263 255.256 182.205 148.643 273.105 428.993 514.715 381.867 246.14 120.283 323.576 495.781 543.336 425.883 268.676 149.699 173.582 394.698 460.189 375.309 332.473 122.315 89.6694 190.052 300.208 275.69 161.156 141.885 </DataArray>
<DataArray type="Float32" Name="E_field" format="ascii">
0 0 0 0 0 0 0 0 0 0 0 0 0 0 0 0 0 0 0 0 0 0 0 0 0 0 0 0 0 0 0 0 0 0 0 0 0 0 0 0 0 0 0 0 0 0 0 0 0 0 0 0 0 0 0 0 0 0 0 0 0 0 0 0 0 0 0 0 0 0 0 0 0 0 0 0 0 0 0 0 0 0 0 0 0 0 0 0 0 0 0 0 0 0 0 0 0 0 0 0 0 0 0 0 0 0 0 0 0 0 0 0 0 0 0 0 0 0 0 0 0 0 0 0 0 0 0 0 0 0 0 0 0 0 0 0 0 0 0 0 0 0 0 0 0 0 0 0 0 0 0 0 0 0 0 0 0 0 0 0 0 0 0 0 0 0 0 0 0 0 0 0 0 0 0 0 0 0 0 0 0 0 0 0 0 0 0 0 0 0 0 0 0 0 0 0 0 0 0 0 0 0 0 0 0 0 0 0 0 0 0 0 0 0 0 0 </DataArray>
</CellData>
<PointData Scalars="number_density">
<DataArray type="Float32" Name="number_density" format="ascii">
9.72e+15 8.856e+15 8.424e+15 7.128e+15 6.696e+15 9.504e+15 1.0152e+16 8.64e+15 8.748e+15 6.048e+15 5.076e+15 5.94e+15 7.452e+15 7.884e+15 6.048e+15 5.616e+15 6.048e+15 7.236e+15 7.776e+15 6.372e+15 5.4e+15 5.724e+15 6.696e+15 6.264e+15 6.372e+15 6.804e+15 6.804e+15 8.532e+15 7.452e+15 8.208e+15 8.856e+15 9.504e+15 9.504e+15 9.504e+15 9.072e+15 8.964e+15 8.424e+15 8.856e+15 1.026e+16 1.1124e+16 1.134e+16 9.072e+15 7.992e+15 8.316e+15 9.18e+15 1.0152e+16 9.072e+15 7.452e+15 7.992e+15 6.804e+15 6.588e+15 6.264e+15 6.696e+15 7.452e+15 6.048e+15 6.696e+15 7.884e+15 8.964e+15 7.884e+15 8.1e+15 8.748e+15 8.64e+15 9.396e+15 6.696e+15 7.236e+15 7.884e+15 7.56e+15 8.1e+15 5.832e+15 5.778e+15 5.994e+15 6.21e+15 7.884e+15 5.292e+15 4.806e+15 4.536e+15 5.454e+15 6.318e+15 5.94e+15 5.022e+15 4.104e+15 5.562e+15 5.778e+15 6.966e+15 6.102e+15 5.292e+15 6.156e+15 6.156e+15 7.236e+15 6.318e+15 5.94e+15 6.264e+15 7.02e+15 8.64e+15 9.45e+15 9.612e+15 1.0152e+16 9.072e+15 9.342e+15 9.774e+15 1.0584e+16 1.2312e+16 1.08e+16 9.558e+15 1.0206e+16 1.2258e+16 1.3824e+16 1.2312e+16 9.45e+15 1.0152e+16 1.1664e+16 1.188e+16 1.1232e+16 9.072e+15 9.342e+15 9.936e+15 9.018e+15 9.234e+15 8.262e+15 7.776e+15 7.938e+15 7.398e+15 7.074e+15 7.128e+15 7.992e+15 8.424e+15 8.37e+15 7.938e+15 6.102e+15 7.02e+15 7.29e+15 7.992e+15 8.586e+15 6.264e+15 6.48e+15 6.912e+15 8.046e+15 9.072e+15 6.75e+15 6.102e+15 6.75e+15 8.1e+15 9.18e+15 7.506e+15 6.858e+15 6.588e+15 7.506e+15 8.964e+15 6.264e+15 6.534e+15 6.426e+15 6.858e+15 8.262e+15 6.102e+15 7.29e+15 7.83e+15 8.046e+15 8.694e+15 7.128e+15 8.856e+15 9.342e+15 1.0044e+16 9.666e+15 7.452e+15 8.316e+15 9.072e+15 9.612e+15 9.45e+15 7.776e+15 8.802e+15 1.0314e+16 1.0368e+16 1.0098e+16 7.344e+15 8.694e+15 1.053e+16 1.0962e+16 1.053e+16 6.75e+15 8.37e+15 1.026e+16 1.1016e+16 1.0746e+16 6.372e+15 8.37e+15 1.0314e+16 1.0746e+16 9.828e+15 6.48e+15 7.56e+15 8.586e+15 8.424e+15 8.262e+15 7.02e+15 7.506e+15 7.02e+15 7.776e+15 8.532e+15 7.398e+15 7.182e+15 5.994e+15 7.128e+15 8.694e+15 7.668e+15 7.02e+15 5.94e+15 7.128e+15 9.018e+15 7.236e+15 7.668e+15 8.208e+15 8.37e+15 8.532e+15 7.29e+15 7.344e+15 8.478e+15 7.506e+15 7.074e+15 6.453e+15 7.911e+15 9.369e+15 1.0179e+16 9.72e+15 7.074e+15 8.721e+15 1.0206e+16 1.1421e+16 1.0827e+16 7.614e+15 9.072e+15 9.774e+15 1.0611e+16 1.0098e+16 7.155e+15 8.91e+15 1.0476e+16 1.0233e+16 9.342e+15 7.533e+15 8.316e+15 9.801e+15 8.775e+15 8.019e+15 6.48e+15 9.315e+15 1.323e+16 1.4526e+16 1.2177e+16 6.993e+15 1.1232e+16 1.8792e+16 2.2437e+16 1.6443e+16 7.101e+15 1.134e+16 1.8522e+16 2.241e+16 1.5687e+16 7.344e+15 1.0611e+16 1.431e+16 1.5579e+16 1.215e+16 7.506e+15 9.369e+15 1.0719e+16 1.0638e+16 9.612e+15 7.398e+15 9.666e+15 1.4013e+16 1.593e+16 1.3311e+16 7.317e+15 1.1961e+16 2.2626e+16 2.7972e+16 1.9413e+16 6.75e+15 1.2015e+16 2.3031e+16 2.8836e+16 1.9251e+16 7.506e+15 1.0746e+16 1.5228e+16 1.7604e+16 1.35e+16 7.101e+15 8.721e+15 9.585e+15 1.0314e+16 1.0017e+16 7.722e+15 9.612e+15 1.2879e+16 1.4256e+16 1.2366e+16 7.803e+15 1.1745e+16 1.836e+16 2.1303e+16 1.5876e+16 7.695e+15 1.2042e+16 1.8063e+16 2.1087e+16 1.5849e+16 7.749e+15 1.0098e+16 1.2177e+16 1.35e+16 1.1826e+16 6.939e+15 7.776e+15 8.316e+15 8.964e+15 9.288e+15 7.587e+15 9.261e+15 1.0773e+16 1.1367e+16 1.0503e+16 7.668e+15 1.0314e+16 1.1988e+16 1.2933e+16 1.1259e+16 7.317e+15 9.45e+15 1.0665e+16 1.1637e+16 1.1043e+16 7.182e+15 8.154e+15 8.1e+15 8.856e+15 9.531e+15 7.209e+15 7.209e+15 7.182e+15 8.019e+15 8.883e+15 </DataArray>
<DataArray type="Float32" Name="potential" format="ascii">
0 0 0 0 0 0 0 0 0 0 0 0 0 0 0 0 0 0 0 0 0 0 0 0 0 0 0 0 0 0 0 0 0 0 0 0 0 0 0 0 0 0 0 0 0 0 0 0 0 0 0 0 0 0 0 0 0 0 0 0 0 0 0 0 0 0 0 0 0 0 0 0 0 0 0 0 0 0 0 0 0 0 0 0 0 0 0 0 0 0 0 0 0 0 0 0 0 0 0 0 0 0 0 0 0 0 0 0 0 0 0 0 0 0 0 0 0 0 0 0 0 0 0 0 0 0 0 0 0 0 0 0 0 0 0 0 0 0 0 0 0 0 0 0 0 0 0 0 0 0 0 0 0 0 0 0 0 0 0 0 0 0 0 0 0 0 0 0 0 0 0 0 0 0 0 0 0 0 0 0 0 0 0 0 0 0 0 0 0 0 0 0 0 0 0 0 0 0 0 0 0 0 0 0 0 0 0 0 0 0 0 0 0 0 0 0 0 0 0 0 0 0 0 0 0 0 0 0 0 0 0 0 0 0 0 0 0 0 0 0 0 0 0 0 0 0 0 0 0 0 0 0 0 0 0 0 0 0 0 0 0 0 0 0 0 0 0 0 0 0 0 0 0 0 0 0 0 0 0 0 0 0 0 0 0 0 0 0 0 0 0 0 0 0 0 0 0 0 0 0 0 0 0 0 0 0 0 0 0 0 0 0 0 0 0 0 0 0 0 0 0 0 0 0 0 0 0 0 0 0 0 0 0 0 0 0 0 0 0 0 0 0 0 </DataArray>
<DataArray type="Float32" Name="temperature" format="ascii">