<VTKFile type="UnstructuredGrid" version="0.1" byte_order="LittleEndian">
<UnstructuredGrid>
<Piece NumberOfPoints="343" NumberOfCells="216">
<Points>
<DataArray type="Float32" NumberOfComponents="3" format="ascii">
-0.05 -0.05 -0.05 0.05 -0.05 -0.05 0.05 0.05 -0.05 -0.05 0.05 -0.05 -0.05 -0.05 0.05 0.05 -0.05 0.05 0.05 0.05 0.05 -0.05 0.05 0.05 -0.0333333 -0.05 -0.05 -0.0166667 -0.05 -0.05 0 -0.05 -0.05 0.0166667 -0.05 -0.05 0.0333333 -0.05 -0.05 0.05 -0.0333333 -0.05 0.05 -0.0166667 -0.05 0.05 0 -0.05 0.05 0.0166667 -0.05 0.05 0.0333333 -0.05 0.0333333 0.05 -0.05 0.0166667 0.05 -0.05 0 0.05 -0.05 -0.0166667 0.05 -0.05 -0.0333333 0.05 -0.05 -0.05 0.0333333 -0.05 -0.05 0.0166667 -0.05 -0.05 0 -0.05 -0.05 -0.0166667 -0.05 -0.05 -0.0333333 -0.05 -0.0333333 -0.05 0.05 -0.0166667 -0.05 0.05 0 -0.05 0.05 0.0166667 -0.05 0.05 0.0333333 -0.05 0.05 0.05 -0.0333333 0.05 0.05 -0.0166667 0.05 0.05 0 0.05 0.05 0.0166667 0.05 0.05 0.0333333 0.05 0.0333333 0.05 0.05 0.0166667 0.05 0.05 0 0.05 0.05 -0.0166667 0.05 0.05 -0.0333333 0.05 0.05 -0.05 0.0333333 0.05 -0.05 0.0166667 0.05 -0.05 0 0.05 -0.05 -0.0166667 0.05 -0.05 -0.0333333 0.05 -0.05 -0.05 -0.0333333 -0.05 -0.05 -0.0166667 -0.05 -0.05 0 -0.05 -0.05 0.0166667 -0.05 -0.05 0.0333333 0.05 -0.05 -0.0333333 0.05 -0.05 -0.0166667 0.05 -0.05 0 0.05 -0.05 0.0166667 0.05 -0.05 0.0333333 0.05 0.05 -0.0333333 0.05 0.05 -0.0166667 0.05 0.05 0 0.05 0.05 0.0166667 0.05 0.05 0.0333333 -0.05 0.05 -0.0333333 -0.05 0.05 -0.0166667 -0.05 0.05 0 -0.05 0.05 0.0166667 -0.05 0.05 0.0333333 -0.0333333 0.0333333 -0.05 -0.0333333 0.0166667 -0.05 -0.0333333 -3.55271e-18 -0.05 -0.0333333 -0.0166667 -0.05 -0.0333333 -0.0333333 -0.05 -0.0166667 0.0333333 -0.05 -0.0166667 0.0166667 -0.05 -0.0166667 -7.10543e-18 -0.05 -0.0166667 -0.0166667 -0.05 -0.0166667 -0.0333333 -0.05 1.77636e-18 0.0333333 -0.05 5.32907e-18 0.0166667 -0.05 3.55271e-18 -1.77636e-18 -0.05 7.10543e-18 -0.0166667 -0.05 3.55271e-18 -0.0333333 -0.05 0.0166667 0.0333333 -0.05 0.0166667 0.0166667 -0.05 0.0166667 -7.10543e-18 -0.05 0.0166667 -0.0166667 -0.05 0.0166667 -0.0333333 -0.05 0.0333333 0.0333333 -0.05 0.0333333 0.0166667 -0.05 0.0333333 -1.77636e-18 -0.05 0.0333333 -0.0166667 -0.05 0.0333333 -0.0333333 -0.05 -0.0333333 -0.0333333 0.05 -0.0333333 -0.0166667 0.05 -0.0333333 0 0.05 -0.0333333 0.0166667 0.05 -0.0333333 0.0333333 0.05 -0.0166667 -0.0333333 0.05 -0.0166667 -0.0166667 0.05 -0.0166667 0 0.05 -0.0166667 0.0166667 0.05 -0.0166667 0.0333333 0.05 0 -0.0333333 0.05 0 -0.0166667 0.05 0 0 0.05 0 0.0166667 0.05 0 0.0333333 0.05 0.0166667 -0.0333333 0.05 0.0166667 -0.0166667 0.05 0.0166667 0 0.05 0.0166667 0.0166667 0.05 0.0166667 0.0333333 0.05 0.0333333 -0.0333333 0.05 0.0333333 -0.0166667 0.05 0.0333333 1.77636e-18 0.05 0.0333333 0.0166667 0.05 0.0333333 0.0333333 0.05 -0.0333333 -0.05 -0.0333333 -0.0333333 -0.05 -0.0166667 -0.0333333 -0.05 0 -0.0333333 -0.05 0.0166667 -0.0333333 -0.05 0.0333333 -0.0166667 -0.05 -0.0333333 -0.0166667 -0.05 -0.0166667 -0.0166667 -0.05 0 -0.0166667 -0.05 0.0166667 -0.0166667 -0.05 0.0333333 0 -0.05 -0.0333333 0 -0.05 -0.0166667 0 -0.05 0 0 -0.05 0.0166667 0 -0.05 0.0333333 0.0166667 -0.05 -0.0333333 0.0166667 -0.05 -0.0166667 0.0166667 -0.05 0 0.0166667 -0.05 0.0166667 0.0166667 -0.05 0.0333333 0.0333333 -0.05 -0.0333333 0.0333333 -0.05 -0.0166667 0.0333333 -0.05 1.77636e-18 0.0333333 -0.05 0.0166667 0.0333333 -0.05 0.0333333 0.05 -0.0333333 -0.0333333 0.05 -0.0333333 -0.0166667 0.05 -0.0333333 0 0.05 -0.0333333 0.0166667 0.05 -0.0333333 0.0333333 0.05 -0.0166667 -0.0333333 0.05 -0.0166667 -0.0166667 0.05 -0.0166667 0 0.05 -0.0166667 0.0166667 0.05 -0.0166667 0.0333333 0.05 0 -0.0333333 0.05 0 -0.0166667 0.05 0 0 0.05 0 0.0166667 0.05 0 0.0333333 0.05 0.0166667 -0.0333333 0.05 0.0166667 -0.0166667 0.05 0.0166667 0 0.05 0.0166667 0.0166667 0.05 0.0166667 0.0333333 0.05 0.0333333 -0.0333333 0.05 0.0333333 -0.0166667 0.05 0.0333333 1.77636e-18 0.05 0.0333333 0.0166667 0.05 0.0333333 0.0333333 0.0333333 0.05 -0.0333333 0.0333333 0.05 -0.0166667 0.0333333 0.05 0 0.0333333 0.05 0.0166667 0.0333333 0.05 0.0333333 0.0166667 0.05 -0.0333333 0.0166667 0.05 -0.0166667 0.0166667 0.05 0 0.0166667 0.05 0.0166667 0.0166667 0.05 0.0333333 0 0.05 -0.0333333 0 0.05 -0.0166667 0 0.05 0 0 0.05 0.0166667 0 0.05 0.0333333 -0.0166667 0.05 -0.0333333 -0.0166667 0.05 -0.0166667 -0.0166667 0.05 0 -0.0166667 0.05 0.0166667 -0.0166667 0.05 0.0333333 -0.0333333 0.05 -0.0333333 -0.0333333 0.05 -0.0166667 -0.0333333 0.05 1.77636e-18 -0.0333333 0.05 0.0166667 -0.0333333 0.05 0.0333333 -0.05 0.0333333 -0.0333333 -0.05 0.0333333 -0.0166667 -0.05 0.0333333 0 -0.05 0.0333333 0.0166667 -0.05 0.0333333 0.0333333 -0.05 0.0166667 -0.0333333 -0.05 0.0166667 -0.0166667 -0.05 0.0166667 0 -0.05 0.0166667 0.0166667 -0.05 0.0166667 0.0333333 -0.05 0 -0.0333333 -0.05 0 -0.0166667 -0.05 0 0 -0.05 0 0.0166667 -0.05 0 0.0333333 -0.05 -0.0166667 -0.0333333 -0.05 -0.0166667 -0.0166667 -0.05 -0.0166667 0 -0.05 -0.0166667 0.0166667 -0.05 -0.0166667 0.0333333 -0.05 -0.0333333 -0.0333333 -0.05 -0.0333333 -0.0166667 -0.05 -0.0333333 1.77636e-18 -0.05 -0.0333333 0.0166667 -0.05 -0.0333333 0.0333333 -0.0333333 0.0333333 -0.0333333 -0.0333333 0.0333333 -0.0166667 -0.0333333 0.0333333 4.44089e-19 -0.0333333 0.0333333 0.0166667 -0.0333333 0.0333333 0.0333333 -0.0333333 0.0166667 -0.0333333 -0.0333333 0.0166667 -0.0166667 -0.0333333 0.0166667 -4.44089e-18 -0.0333333 0.0166667 0.0166667 -0.0333333 0.0166667 0.0333333 -0.0333333 -6.66134e-18 -0.0333333 -0.0333333 -9.76996e-18 -0.0166667 -0.0333333 -1.77636e-18 -1.77636e-18 -0.0333333 -1.77636e-18 0.0166667 -0.0333333 3.55271e-18 0.0333333 -0.0333333 -0.0166667 -0.0333333 -0.0333333 -0.0166667 -0.0166667 -0.0333333 -0.0166667 1.77636e-18 -0.0333333 -0.0166667 0.0166667 -0.0333333 -0.0166667 0.0333333 -0.0333333 -0.0333333 -0.0333333 -0.0333333 -0.0333333 -0.0166667 -0.0333333 -0.0333333 0 -0.0333333 -0.0333333 0.0166667 -0.0333333 -0.0333333 0.0333333 -0.0166667 0.0333333 -0.0333333 -0.0166667 0.0333333 -0.0166667 -0.0166667 0.0333333 2.66454e-18 -0.0166667 0.0333333 0.0166667 -0.0166667 0.0333333 0.0333333 -0.0166667 0.0166667 -0.0333333 -0.0166667 0.0166667 -0.0166667 -0.0166667 0.0166667 -1.77636e-18 -0.0166667 0.0166667 0.0166667 -0.0166667 0.0166667 0.0333333 -0.0166667 -1.06581e-17 -0.0333333 -0.0166667 -1.15463e-17 -0.0166667 -0.0166667 -3.55271e-18 0 -0.0166667 -8.88178e-18 0.0166667 -0.0166667 -1.77636e-18 0.0333333 -0.0166667 -0.0166667 -0.0333333 -0.0166667 -0.0166667 -0.0166667 -0.0166667 -0.0166667 3.55271e-18 -0.0166667 -0.0166667 0.0166667 -0.0166667 -0.0166667 0.0333333 -0.0166667 -0.0333333 -0.0333333 -0.0166667 -0.0333333 -0.0166667 -0.0166667 -0.0333333 0 -0.0166667 -0.0333333 0.0166667 -0.0166667 -0.0333333 0.0333333 3.44169e-18 0.0333333 -0.0333333 1.02141e-17 0.0333333 -0.0166667 2.66454e-18 0.0333333 -8.88178e-19 6.21725e-18 0.0333333 0.0166667 1.33227e-18 0.0333333 0.0333333 7.99361e-18 0.0166667 -0.0333333 8.43769e-18 0.0166667 -0.0166667 8.88178e-19 0.0166667 8.88178e-19 7.99361e-18 0.0166667 0.0166667 3.55271e-18 0.0166667 0.0333333 3.55271e-18 -1.77636e-18 -0.0333333 9.76996e-18 -9.76996e-18 -0.0166667 0 -8.88178e-19 -8.88178e-19 8.88178e-18 -8.88178e-18 0.0166667 1.77636e-18 -1.77636e-18 0.0333333 1.02141e-17 -0.0166667 -0.0333333 1.24345e-17 -0.0166667 -0.0166667 3.55271e-18 -0.0166667 -1.77636e-18 8.88178e-18 -0.0166667 0.0166667 3.55271e-18 -0.0166667 0.0333333 5.77316e-18 -0.0333333 -0.0333333 4.44089e-18 -0.0333333 -0.0166667 1.77636e-18 -0.0333333 1.77636e-18 5.32907e-18 -0.0333333 0.0166667 0 -0.0333333 0.0333333 0.0166667 0.0333333 -0.0333333 0.0166667 0.0333333 -0.0166667 0.0166667 0.0333333 -2.66454e-18 0.0166667 0.0333333 0.0166667 0.0166667 0.0333333 0.0333333 0.0166667 0.0166667 -0.0333333 0.0166667 0.0166667 -0.0166667 0.0166667 0.0166667 3.10862e-18 0.0166667 0.0166667 0.0166667 0.0166667 0.0166667 0.0333333 0.0166667 -1.24345e-17 -0.0333333 0.0166667 -1.37668e-17 -0.0166667 0.0166667 -3.55271e-18 -1.77636e-18 0.0166667 -6.21725e-18 0.0166667 0.0166667 -8.88178e-19 0.0333333 0.0166667 -0.0166667 -0.0333333 0.0166667 -0.0166667 -0.0166667 0.0166667 -0.0166667 2.66454e-18 0.0166667 -0.0166667 0.0166667 0.0166667 -0.0166667 0.0333333 0.0166667 -0.0333333 -0.0333333 0.0166667 -0.0333333 -0.0166667 0.0166667 -0.0333333 0 0.0166667 -0.0333333 0.0166667 0.0166667 -0.0333333 0.0333333 0.0333333 0.0333333 -0.0333333 0.0333333 0.0333333 -0.0166667 0.0333333 0.0333333 3.33067e-19 0.0333333 0.0333333 0.0166667 0.0333333 0.0333333 0.0333333 0.0333333 0.0166667 -0.0333333 0.0333333 0.0166667 -0.0166667 0.0333333 0.0166667 1.11022e-18 0.0333333 0.0166667 0.0166667 0.0333333 0.0166667 0.0333333 0.0333333 -4.44089e-18 -0.0333333 0.0333333 -4.21885e-18 -0.0166667 0.0333333 8.88178e-19 8.88178e-19 0.0333333 -1.33227e-18 0.0166667 0.0333333 3.55271e-18 0.0333333 0.0333333 -0.0166667 -0.0333333 0.0333333 -0.0166667 -0.0166667 0.0333333 -0.0166667 2.22045e-18 0.0333333 -0.0166667 0.0166667 0.0333333 -0.0166667 0.0333333 0.0333333 -0.0333333 -0.0333333 0.0333333 -0.0333333 -0.0166667 0.0333333 -0.0333333 2.22045e-18 0.0333333 -0.0333333 0.0166667 0.0333333 -0.0333333 0.0333333 </DataArray>
</Points>
<Cells>
<DataArray type="Int32" Name="connectivity" format="ascii">
68 22 3 23 218 188 63 193 218 188 63 193 219 189 64 194 219 189 64 194 220 190 65 195 220 190 65 195 221 191 66 196 221 191 66 196 222 192 67 197 222 192 67 197 97 42 7 43 69 68 23 24 223 218 193 198 223 218 193 198 224 219 194 199 224 219 194 199 225 220 195 200 225 220 195 200 226 221 196 201 226 221 196 201 227 222 197 202 227 222 197 202 96 97 43 44 70 69 24 25 228 223 198 203 228 223 198 203 229 224 199 204 229 224 199 204 230 225 200 205 230 225 200 205 231 226 201 206 231 226 201 206 232 227 202 207 232 227 202 207 95 96 44 45 71 70 25 26 233 228 203 208 233 228 203 208 234 229 204 209 234 229 204 209 235 230 205 210 235 230 205 210 236 231 206 211 236 231 206 211 237 232 207 212 237 232 207 212 94 95 45 46 72 71 26 27 238 233 208 213 238 233 208 213 239 234 209 214 239 234 209 214 240 235 210 215 240 235 210 215 241 236 211 216 241 236 211 216 242 237 212 217 242 237 212 217 93 94 46 47 8 72 27 0 118 238 213 48 118 238 213 48 119 239 214 49 119 239 214 49 120 240 215 50 120 240 215 50 121 241 216 51 121 241 216 51 122 242 217 52 122 242 217 52 28 93 47 4 73 21 22 68 243 183 188 218 243 183 188 218 244 184 189 219 244 184 189 219 245 185 190 220 245 185 190 220 246 186 191 221 246 186 191 221 247 187 192 222 247 187 192 222 102 41 42 97 74 73 68 69 248 243 218 223 248 243 218 223 249 244 219 224 249 244 219 224 250 245 220 225 250 245 220 225 251 246 221 226 251 246 221 226 252 247 222 227 252 247 222 227 101 102 97 96 75 74 69 70 253 248 223 228 253 248 223 228 254 249 224 229 254 249 224 229 255 250 225 230 255 250 225 230 256 251 226 231 256 251 226 231 257 252 227 232 257 252 227 232 100 101 96 95 76 75 70 71 258 253 228 233 258 253 228 233 259 254 229 234 259 254 229 234 260 255 230 235 260 255 230 235 261 256 231 236 261 256 231 236 262 257 232 237 262 257 232 237 99 100 95 94 77 76 71 72 263 258 233 238 263 258 233 238 264 259 234 239 264 259 234 239 265 260 235 240 265 260 235 240 266 261 236 241 266 261 236 241 267 262 237 242 267 262 237 242 98 99 94 93 9 77 72 8 123 263 238 118 123 263 238 118 124 264 239 119 124 264 239 119 125 265 240 120 125 265 240 120 126 266 241 121 126 266 241 121 127 267 242 122 127 267 242 122 29 98 93 28 78 20 21 73 268 178 183 243 268 178 183 243 269 179 184 244 269 179 184 244 270 180 185 245 270 180 185 245 271 181 186 246 271 181 186 246 272 182 187 247 272 182 187 247 107 40 41 102 79 78 73 74 273 268 243 248 273 268 243 248 274 269 244 249 274 269 244 249 275 270 245 250 275 270 245 250 276 271 246 251 276 271 246 251 277 272 247 252 277 272 247 252 106 107 102 101 80 79 74 75 278 273 248 253 278 273 248 253 279 274 249 254 279 274 249 254 280 275 250 255 280 275 250 255 281 276 251 256 281 276 251 256 282 277 252 257 282 277 252 257 105 106 101 100 81 80 75 76 283 278 253 258 283 278 253 258 284 279 254 259 284 279 254 259 285 280 255 260 285 280 255 260 286 281 256 261 286 281 256 261 287 282 257 262 287 282 257 262 104 105 100 99 82 81 76 77 288 283 258 263 288 283 258 263 289 284 259 264 289 284 259 264 290 285 260 265 290 285 260 265 291 286 261 266 291 286 261 266 292 287 262 267 292 287 262 267 103 104 99 98 10 82 77 9 128 288 263 123 128 288 263 123 129 289 264 124 129 289 264 124 130 290 265 125 130 290 265 125 131 291 266 126 131 291 266 126 132 292 267 127 132 292 267 127 30 103 98 29 83 19 20 78 293 173 178 268 293 173 178 268 294 174 179 269 294 174 179 269 295 175 180 270 295 175 180 270 296 176 181 271 296 176 181 271 297 177 182 272 297 177 182 272 112 39 40 107 84 83 78 79 298 293 268 273 298 293 268 273 299 294 269 274 299 294 269 274 300 295 270 275 300 295 270 275 301 296 271 276 301 296 271 276 302 297 272 277 302 297 272 277 111 112 107 106 85 84 79 80 303 298 273 278 303 298 273 278 304 299 274 279 304 299 274 279 305 300 275 280 305 300 275 280 306 301 276 281 306 301 276 281 307 302 277 282 307 302 277 282 110 111 106 105 86 85 80 81 308 303 278 283 308 303 278 283 309 304 279 284 309 304 279 284 310 305 280 285 310 305 280 285 311 306 281 286 311 306 281 286 312 307 282 287 312 307 282 287 109 110 105 104 87 86 81 82 313 308 283 288 313 308 283 288 314 309 284 289 314 309 284 289 315 310 285 290 315 310 285 290 316 311 286 291 316 311 286 291 317 312 287 292 317 312 287 292 108 109 104 103 11 87 82 10 133 313 288 128 133 313 288 128 134 314 289 129 134 314 289 129 135 315 290 130 135 315 290 130 136 316 291 131 136 316 291 131 137 317 292 132 137 317 292 132 31 108 103 30 88 18 19 83 318 168 173 293 318 168 173 293 319 169 174 294 319 169 174 294 320 170 175 295 320 170 175 295 321 171 176 296 321 171 176 296 322 172 177 297 322 172 177 297 117 38 39 112 89 88 83 84 323 318 293 298 323 318 293 298 324 319 294 299 324 319 294 299 325 320 295 300 325 320 295 300 326 321 296 301 326 321 296 301 327 322 297 302 327 322 297 302 116 117 112 111 90 89 84 85 328 323 298 303 328 323 298 303 329 324 299 304 329 324 299 304 330 325 300 305 330 325 300 305 331 326 301 306 331 326 301 306 332 327 302 307 332 327 302 307 115 116 111 110 91 90 85 86 333 328 303 308 333 328 303 308 334 329 304 309 334 329 304 309 335 330 305 310 335 330 305 310 336 331 306 311 336 331 306 311 337 332 307 312 337 332 307 312 114 115 110 109 92 91 86 87 338 333 308 313 338 333 308 313 339 334 309 314 339 334 309 314 340 335 310 315 340 335 310 315 341 336 311 316 341 336 311 316 342 337 312 317 342 337 312 317 113 114 109 108 12 92 87 11 138 338 313 133 138 338 313 133 139 339 314 134 139 339 314 134 140 340 315 135 140 340 315 135 141 341 316 136 141 341 316 136 142 342 317 137 142 342 317 137 32 113 108 31 17 2 18 88 163 58 168 318 163 58 168 318 164 59 169 319 164 59 169 319 165 60 170 320 165 60 170 320 166 61 171 321 166 61 171 321 167 62 172 322 167 62 172 322 37 6 38 117 16 17 88 89 158 163 318 323 158 163 318 323 159 164 319 324 159 164 319 324 160 165 320 325 160 165 320 325 161 166 321 326 161 166 321 326 162 167 322 327 162 167 322 327 36 37 117 116 15 16 89 90 153 158 323 328 153 158 323 328 154 159 324 329 154 159 324 329 155 160 325 330 155 160 325 330 156 161 326 331 156 161 326 331 157 162 327 332 157 162 327 332 35 36 116 115 14 15 90 91 148 153 328 333 148 153 328 333 149 154 329 334 149 154 329 334 150 155 330 335 150 155 330 335 151 156 331 336 151 156 331 336 152 157 332 337 152 157 332 337 34 35 115 114 13 14 91 92 143 148 333 338 143 148 333 338 144 149 334 339 144 149 334 339 145 150 335 340 145 150 335 340 146 151 336 341 146 151 336 341 147 152 337 342 147 152 337 342 33 34 114 113 1 13 92 12 53 143 338 138 53 143 338 138 54 144 339 139 54 144 339 139 55 145 340 140 55 145 340 140 56 146 341 141 56 146 341 141 57 147 342 142 57 147 342 142 5 33 113 32 </DataArray>
<DataArray type="Int32" Name="offsets" format="ascii">
8 16 24 32 40 48 56 64 72 80 88 96 104 112 120 128 136 144 152 160 168 176 184 192 200 208 216 224 232 240 248 256 264 272 280 288 296 304 312 320 328 336 344 352 360 368 376 384 392 400 408 416 424 432 440 448 456 464 472 480 488 496 504 512 520 528 536 544 552 560 568 576 584 592 600 608 616 624 632 640 648 656 664 672 680 688 696 704 712 720 728 736 744 752 760 768 776 784 792 800 808 816 824 832 840 848 856 864 872 880 888 896 904 912 920 928 936 944 952 960 968 976 984 992 1000 1008 1016 1024 1032 1040 1048 1056 1064 1072 1080 1088 1096 1104 1112 1120 1128 1136 1144 1152 1160 1168 1176 1184 1192 1200 1208 1216 1224 1232 1240 1248 1256 1264 1272 1280 1288 1296 1304 1312 1320 1328 1336 1344 1352 1360 1368 1376 1384 1392 1400 1408 1416 1424 1432 1440 1448 1456 1464 1472 1480 1488 1496 1504 1512 1520 1528 1536 1544 1552 1560 1568 1576 1584 1592 1600 1608 1616 1624 1632 1640 1648 1656 1664 1672 1680 1688 1696 1704 1712 1720 1728 </DataArray>
<DataArray type="UInt8" Name="types" format="ascii">
12 12 12 12 12 12 12 12 12 12 12 12 12 12 12 12 12 12 12 12 12 12 12 12 12 12 12 12 12 12 12 12 12 12 12 12 12 12 12 12 12 12 12 12 12 12 12 12 12 12 12 12 12 12 12 12 12 12 12 12 12 12 12 12 12 12 12 12 12 12 12 12 12 12 12 12 12 12 12 12 12 12 12 12 12 12 12 12 12 12 12 12 12 12 12 12 12 12 12 12 12 12 12 12 12 12 12 12 12 12 12 12 12 12 12 12 12 12 12 12 12 12 12 12 12 12 12 12 12 12 12 12 12 12 12 12 12 12 12 12 12 12 12 12 12 12 12 12 12 12 12 12 12 12 12 12 12 12 12 12 12 12 12 12 12 12 12 12 12 12 12 12 12 12 12 12 12 12 12 12 12 12 12 12 12 12 12 12 12 12 12 12 12 12 12 12 12 12 12 12 12 12 12 12 12 12 12 12 12 12 12 12 12 12 12 12 </DataArray>
</Cells>
<CellData Scalars="scalars">
<DataArray type="Float32" Name="number_density" format="ascii">
6.048e+15 4.968e+15 6.912e+15 7.344e+15 6.264e+15 8.64e+15 3.024e+15 9.504e+15 5.832e+15 5.4e+15 7.776e+15 7.344e+15 6.048e+15 6.048e+15 6.048e+15 4.536e+15 6.912e+15 7.56e+15 5.4e+15 7.56e+15 4.752e+15 7.128e+15 7.992e+15 7.992e+15 6.912e+15 5.4e+15 9.72e+15 9.288e+15 7.776e+15 7.128e+15 8.424e+15 5.832e+15 5.616e+15 5.4e+15 4.752e+15 5.616e+15 5.832e+15 7.128e+15 7.776e+15 9.072e+15 9.288e+15 7.992e+15 3.456e+15 6.048e+15 9.288e+15 1.6848e+16 1.5768e+16 1.1448e+16 4.32e+15 6.264e+15 1.3824e+16 1.7712e+16 1.6416e+16 1.1016e+16 2.376e+15 9.936e+15 1.2744e+16 1.4256e+16 1.3176e+16 9.288e+15 5.616e+15 8.424e+15 9.936e+15 1.4904e+16 1.0584e+16 1.1232e+16 6.264e+15 8.208e+15 7.776e+15 6.264e+15 7.128e+15 8.208e+15 3.24e+15 7.776e+15 9.288e+15 9.504e+15 1.512e+16 1.1664e+16 3.24e+15 6.264e+15 1.3176e+16 2.9808e+16 3.024e+16 1.5552e+16 1.728e+15 9.288e+15 1.4256e+16 4.8168e+16 6.48e+16 1.4472e+16 1.944e+15 8.208e+15 1.4688e+16 2.7864e+16 2.6784e+16 1.2096e+16 4.536e+15 1.0584e+16 1.2528e+16 1.4256e+16 1.2312e+16 1.1016e+16 3.024e+15 4.104e+15 5.184e+15 7.776e+15 7.56e+15 6.264e+15 4.32e+15 7.992e+15 7.992e+15 9.72e+15 1.08e+16 1.2744e+16 4.536e+15 7.344e+15 1.3608e+16 2.8512e+16 3.0456e+16 1.404e+16 3.888e+15 6.264e+15 1.62e+16 4.9032e+16 5.2704e+16 1.5552e+16 2.592e+15 1.0584e+16 1.08e+16 2.3976e+16 2.6136e+16 1.2312e+16 4.752e+15 7.992e+15 8.64e+15 1.188e+16 1.1232e+16 7.56e+15 4.536e+15 6.912e+15 4.752e+15 6.048e+15 7.992e+15 8.856e+15 4.104e+15 8.856e+15 8.208e+15 1.3392e+16 1.2312e+16 1.0152e+16 6.048e+15 8.64e+15 1.2528e+16 1.6848e+16 1.6632e+16 9.936e+15 5.4e+15 9.072e+15 1.1664e+16 1.8144e+16 2.268e+16 1.0368e+16 4.536e+15 8.856e+15 1.0368e+16 1.188e+16 1.5336e+16 1.0368e+16 5.4e+15 7.992e+15 9.288e+15 6.912e+15 8.856e+15 7.992e+15 4.32e+15 6.696e+15 5.4e+15 7.344e+15 7.992e+15 9.936e+15 7.56e+15 6.696e+15 7.992e+15 8.64e+15 9.072e+15 1.0152e+16 4.752e+15 7.128e+15 7.56e+15 8.856e+15 9.936e+15 7.776e+15 4.104e+15 8.208e+15 6.264e+15 7.344e+15 8.856e+15 9.288e+15 3.888e+15 5.616e+15 3.888e+15 5.832e+15 6.48e+15 6.048e+15 5.4e+15 4.968e+15 6.048e+15 5.184e+15 6.912e+15 7.56e+15 8.424e+15 5.4e+15 4.536e+15 6.48e+15 7.776e+15 8.64e+15 </DataArray>
<DataArray type="Float32" Name="potential" format="ascii">
0 0 0 0 0 0 0 0 0 0 0 0 0 0 0 0 0 0 0 0 0 0 0 0 0 0 0 0 0 0 0 0 0 0 0 0 0 0 0 0 0 0 0 0 0 0 0 0 0 0 0 0 0 0 0 0 0 0 0 0 0 0 0 0 0 0 0 0 0 0 0 0 0 0 0 0 0 0 0 0 0 0 0 0 0 0 0 0 0 0 0 0 0 0 0 0 0 0 0 0 0 0 0 0 0 0 0 0 0 0 0 0 0 0 0 0 0 0 0 0 0 0 0 0 0 0 0 0 0 0 0 0 0 0 0 0 0 0 0 0 0 0 0 0 0 0 0 0 0 0 0 0 0 0 0 0 0 0 0 0 0 0 0 0 0 0 0 0 0 0 0 0 0 0 0 0 0 0 0 0 0 0 0 0 0 0 0 0 0 0 0 0 0 0 0 0 0 0 0 0 0 0 0 0 0 0 0 0 0 0 0 0 0 0 0 0 </DataArray>
<DataArray type="Float32" Name="temperature" format="ascii">
219.416 342.667 300.569 294.204 305.963 269.092 117.963 232.986 294.335 445.656 388.621 345.469 180.568 254.968 536.068 668.853 378.334 219.084 232.398 292.992 315.234 342.863 442.696 260.351 243.197 202.98 288.904 328.921 263.585 219.834 215.405 270.962 208.092 243.014 229.392 225.623 182.884 250.067 314.393 400.082 279.841 313.316 201.19 278.837 357.13 588.829 430.734 323.671 226.841 367.117 548.762 694.293 551.387 330.735 322.014 302.836 386.803 544.919 582.177 388.903 345.955 324.152 365.622 485.081 343.566 263.228 249.92 319.309 291.518 291.056 266.934 281.916 325.43 268.594 334.327 357.175 434.247 424.468 203.462 277.368 520.05 839.25 874.604 439.217 295.292 503.043 580.783 1187.54 999.127 539.254 273.218 430.431 605.593 936.885 869.963 441.898 490.62 289.853 383.075 506.107 421.963 297.735 181.614 205.692 277.345 397.166 357.75 262.277 189.819 235.166 301.869 439.404 525.638 291.055 177.826 415.992 482.939 870.105 860.724 329.94 322.567 401.429 526.901 1142.24 980.144 482.056 314.948 398.207 562.161 873.892 812.128 367.038 273.002 327.91 397.479 465.004 377.612 242.15 335.41 273.352 439.817 371.708 344.669 257.527 231.309 281.051 360.697 385.942 313.829 287.407 233.507 368.302 375.3 459.542 409.375 328.995 417.716 322.503 403.247 609.664 630.926 314.938 182.157 322.105 494.988 698.202 460.205 361.079 283.809 270.75 249.615 394.977 360.528 250.785 271.148 284.932 331.473 341.595 263.125 244.362 285.518 229.556 280.501 346.918 314.422 332.229 267.706 279.639 297.33 275.159 370.257 289.921 215.34 315.239 382.896 490.132 334.49 266.594 271.579 268.702 289.526 311.418 337.042 255.436 194.049 226.019 337.306 244.389 218.695 245.835 234.188 228.553 171.068 252.772 195.282 238.685 </DataArray>
<DataArray type="Float32" Name="velocity" format="ascii">
153.632 258.605 343.475 298.957 161.912 55.6595 279.284 408.487 601.685 395.228 179.994 122.911 309.673 505.066 615.088 486.608 275.208 163.599 365.855 478.718 573.434 474.492 362.904 257.189 205.638 363.227 420.924 427.038 244.127 233.404 136.747 196.168 295.536 221.386 207.326 164.435 257.892 444.31 534.105 448.144 300.432 176.858 413.765 664.083 669.542 631.131 466.514 195.179 522.015 859.145 961.409 852.025 485.689 282.529 574.986 737.66 925.733 780.939 490.194 360.963 296.636 573.551 647.943 578.151 449.092 285.007 198.537 331.117 386.23 400.792 238.726 185.92 386.469 641.102 717.219 589.196 280.253 103.144 501.262 858.797 1020.31 737.798 461.211 154.359 655.279 1037.13 1281.58 959.768 611.726 243.376 725.276 982.668 1186.75 1026.33 586.027 290.791 431.338 743.722 866.568 754.409 509.837 331.347 363.302 444.209 572.977 407.97 245.161 161.781 316.637 586.273 564.356 476.226 235.458 27.2051 491.381 775.785 960.295 776.431 383.741 82.2427 626.943 1038.41 1274.61 954.351 501.333 113.173 615.447 1060.22 1293.56 1068.04 561 400.55 481.619 796.061 931.224 909.097 493.365 397.382 324.44 462.966 585.836 480.809 344.354 159.732 252.177 375.914 405.481 357.107 74.1413 54.5215 382.124 571.693 794.906 599.606 262.859 122.491 476.41 764.609 982.871 755.607 325.896 270.699 529.681 816.114 994.53 875.819 513.795 255.941 311.215 635.785 747.157 687.331 469.011 296.441 307.497 367.56 492.283 419.58 360.858 189.407 136.371 228.339 276.622 237.184 62.1912 117.125 149.48 408.722 494.32 363.766 179.255 74.8797 269.568 531.461 593.453 530.325 311.54 172.521 346.46 535.184 617.656 538.96 290.725 180.816 252.644 417.29 538.268 441.835 335.221 119.914 146.71 232.024 372.929 322.127 204.837 132.988 </DataArray>
<DataArray type="Float32" Name="E_field" format="ascii">
0 0 0 0 0 0 0 0 0 0 0 0 0 0 0 0 0 0 0 0 0 0 0 0 0 0 0 0 0 0 0 0 0 0 0 0 0 0 0 0 0 0 0 0 0 0 0 0 0 0 0 0 0 0 0 0 0 0 0 0 0 0 0 0 0 0 0 0 0 0 0 0 0 0 0 0 0 0 0 0 0 0 0 0 0 0 0 0 0 0 0 0 0 0 0 0 0 0 0 0 0 0 0 0 0 0 0 0 0 0 0 0 0 0 0 0 0 0 0 0 0 0 0 0 0 0 0 0 0 0 0 0 0 0 0 0 0 0 0 0 0 0 0 0 0 0 0 0 0 0 0 0 0 0 0 0 0 0 0 0 0 0 0 0 0 0 0 0 0 0 0 0 0 0 0 0 0 0 0 0 0 0 0 0 0 0 0 0 0 0 0 0 0 0 0 0 0 0 0 0 0 0 0 0 0 0 0 0 0 0 0 0 0 0 0 0 </DataArray>
</CellData>
<PointData Scalars="number_density">
<DataArray type="Float32" Name="number_density" format="ascii">
8.424e+15 8.424e+15 7.56e+15 6.048e+15 5.616e+15 8.64e+15 1.0152e+16 8.64e+15 7.344e+15 4.644e+15 3.78e+15 4.428e+15 6.372e+15 6.912e+15 4.644e+15 3.996e+15 4.428e+15 6.156e+15 5.832e+15 4.212e+15 3.78e+15 4.536e+15 5.94e+15 4.536e+15 4.536e+15 5.724e+15 6.156e+15 7.668e+15 6.912e+15 7.236e+15 7.56e+15 9.396e+15 9.288e+15 8.1e+15 6.804e+15 7.668e+15 8.532e+15 8.964e+15 1.0152e+16 1.1448e+16 1.2204e+16 9.828e+15 8.316e+15 7.992e+15 7.452e+15 7.776e+15 7.56e+15 6.372e+15 7.128e+15 5.724e+15 5.508e+15 5.076e+15 5.184e+15 6.912e+15 4.968e+15 5.508e+15 7.128e+15 8.208e+15 7.128e+15 7.344e+15 8.316e+15 8.856e+15 9.612e+15 5.508e+15 5.94e+15 7.128e+15 6.804e+15 7.452e+15 4.59e+15 4.212e+15 4.536e+15 5.076e+15 6.804e+15 3.942e+15 3.186e+15 2.592e+15 3.618e+15 4.86e+15 3.834e+15 3.348e+15 2.538e+15 3.456e+15 4.212e+15 4.752e+15 4.968e+15 4.104e+15 4.32e+15 4.752e+15 5.616e+15 5.076e+15 4.482e+15 4.806e+15 5.886e+15 8.046e+15 8.91e+15 8.964e+15 9.342e+15 8.856e+15 9.18e+15 1.0908e+16 1.1718e+16 1.3122e+16 1.1664e+16 8.424e+15 1.0746e+16 1.3608e+16 1.4904e+16 1.35e+16 8.586e+15 9.558e+15 1.215e+16 1.2474e+16 1.1718e+16 8.532e+15 7.992e+15 9.018e+15 9.342e+15 9.504e+15 7.182e+15 6.858e+15 6.264e+15 5.886e+15 6.426e+15 5.4e+15 6.318e+15 6.75e+15 7.182e+15 7.29e+15 4.644e+15 5.238e+15 5.94e+15 7.344e+15 7.668e+15 5.616e+15 5.94e+15 5.886e+15 7.344e+15 8.694e+15 6.21e+15 5.508e+15 5.94e+15 7.398e+15 8.586e+15 6.048e+15 5.238e+15 5.562e+15 6.588e+15 7.722e+15 4.968e+15 5.13e+15 5.238e+15 6.102e+15 6.75e+15 5.454e+15 5.994e+15 5.832e+15 7.128e+15 7.668e+15 6.048e+15 7.29e+15 7.506e+15 8.748e+15 8.964e+15 6.534e+15 7.344e+15 8.262e+15 9.126e+15 9.234e+15 6.804e+15 7.938e+15 9.558e+15 1.0854e+16 1.0422e+16 6.318e+15 8.262e+15 9.828e+15 1.1556e+16 1.1502e+16 5.832e+15 8.262e+15 9.126e+15 1.1286e+16 1.2582e+16 5.994e+15 7.992e+15 8.91e+15 1.0746e+16 1.1016e+16 5.994e+15 6.696e+15 7.776e+15 7.992e+15 8.046e+15 5.886e+15 6.804e+15 6.372e+15 6.696e+15 7.506e+15 6.156e+15 6.858e+15 5.454e+15 6.156e+15 7.398e+15 6.264e+15 6.102e+15 5.616e+15 6.642e+15 7.614e+15 6.318e+15 6.858e+15 7.722e+15 8.046e+15 7.722e+15 6.642e+15 6.642e+15 7.506e+15 6.804e+15 6.318e+15 5.751e+15 7.182e+15 8.559e+15 9.72e+15 9.315e+15 5.589e+15 7.857e+15 9.936e+15 1.1421e+16 1.053e+16 5.994e+15 8.397e+15 1.0125e+16 1.1016e+16 1.0044e+16 6.453e+15 8.559e+15 1.0341e+16 1.0638e+16 9.396e+15 6.885e+15 7.614e+15 8.613e+15 8.262e+15 7.803e+15 5.373e+15 8.343e+15 1.3095e+16 1.6956e+16 1.4634e+16 5.076e+15 9.801e+15 2.0385e+16 2.997e+16 2.2464e+16 5.508e+15 1.1151e+16 2.0439e+16 2.8647e+16 2.1006e+16 6.453e+15 1.0881e+16 1.5147e+16 1.6767e+16 1.3311e+16 6.345e+15 8.343e+15 9.828e+15 1.0098e+16 9.288e+15 5.589e+15 9.18e+15 1.5201e+16 2.052e+16 1.7577e+16 5.319e+15 1.08e+16 2.6595e+16 4.1715e+16 2.9727e+16 5.562e+15 1.1286e+16 2.5623e+16 3.9933e+16 2.8107e+16 6.399e+15 1.0503e+16 1.5579e+16 1.9305e+16 1.4931e+16 5.805e+15 7.587e+15 8.883e+15 9.882e+15 9.099e+15 6.48e+15 9.396e+15 1.3851e+16 1.7334e+16 1.4634e+16 6.399e+15 1.0665e+16 2.0817e+16 2.9376e+16 2.1546e+16 6.399e+15 1.0476e+16 1.9008e+16 2.7486e+16 2.0682e+16 6.588e+15 9.315e+15 1.1718e+16 1.4526e+16 1.2474e+16 6.075e+15 7.209e+15 7.533e+15 8.532e+15 8.802e+15 6.723e+15 8.451e+15 1.0503e+16 1.1961e+16 1.0746e+16 6.669e+15 8.883e+15 1.1151e+16 1.3662e+16 1.1934e+16 6.21e+15 7.992e+15 9.423e+15 1.2069e+16 1.1178e+16 5.832e+15 7.128e+15 7.425e+15 8.424e+15 8.694e+15 6.075e+15 6.291e+15 6.399e+15 7.182e+15 8.208e+15 </DataArray>
<DataArray type="Float32" Name="potential" format="ascii">
0 0 0 0 0 0 0 0 0 0 0 0 0 0 0 0 0 0 0 0 0 0 0 0 0 0 0 0 0 0 0 0 0 0 0 0 0 0 0 0 0 0 0 0 0 0 0 0 0 0 0 0 0 0 0 0 0 0 0 0 0 0 0 0 0 0 0 0 0 0 0 0 0 0 0 0 0 0 0 0 0 0 0 0 0 0 0 0 0 0 0 0 0 0 0 0 0 0 0 0 0 0 0 0 0 0 0 0 0 0 0 0 0 0 0 0 0 0 0 0 0 0 0 0 0 0 0 0 0 0 0 0 0 0 0 0 0 0 0 0 0 0 0 0 0 0 0 0 0 0 0 0 0 0 0 0 0 0 0 0 0 0 0 0 0 0 0 0 0 0 0 0 0 0 0 0 0 0 0 0 0 0 0 0 0 0 0 0 0 0 0 0 0 0 0 0 0 0 0 0 0 0 0 0 0 0 0 0 0 0 0 0 0 0 0 0 0 0 0 0 0 0 0 0 0 0 0 0 0 0 0 0 0 0 0 0 0 0 0 0 0 0 0 0 0 0 0 0 0 0 0 0 0 0 0 0 0 0 0 0 0 0 0 0 0 0 0 0 0 0 0 0 0 0 0 0 0 0 0 0 0 0 0 0 0 0 0 0 0 0 0 0 0 0 0 0 0 0 0 0 0 0 0 0 0 0 0 0 0 0 0 0 0 0 0 0 0 0 0 0 0 0 0 0 0 0 0 0 0 0 0 0 0 0 0 0 0 0 0 0 0 0 0 </DataArray>
<DataArray type="Float32" Name="temperature" format="ascii">