<VTKFile type="UnstructuredGrid" version="0.1" byte_order="LittleEndian">
<UnstructuredGrid>
<Piece NumberOfPoints="343" NumberOfCells="216">
<Points>
<DataArray type="Float32" NumberOfComponents="3" format="ascii">
-0.05 -0.05 -0.05 0.05 -0.05 -0.05 0.05 0.05 -0.05 -0.05 0.05 -0.05 -0.05 -0.05 0.05 0.05 -0.05 0.05 0.05 0.05 0.05 -0.05 0.05 0.05 -0.0333333 -0.05 -0.05 -0.0166667 -0.05 -0.05 0 -0.05 -0.05 0.0166667 -0.05 -0.05 0.0333333 -0.05 -0.05 0.05 -0.0333333 -0.05 0.05 -0.0166667 -0.05 0.05 0 -0.05 0.05 0.0166667 -0.05 0.05 0.0333333 -0.05 0.0333333 0.05 -0.05 0.0166667 0.05 -0.05 0 0.05 -0.05 -0.0166667 0.05 -0.05 -0.0333333 0.05 -0.05 -0.05 0.0333333 -0.05 -0.05 0.0166667 -0.05 -0.05 0 -0.05 -0.05 -0.0166667 -0.05 -0.05 -0.0333333 -0.05 -0.0333333 -0.05 0.05 -0.0166667 -0.05 0.05 0 -0.05 0.05 0.0166667 -0.05 0.05 0.0333333 -0.05 0.05 0.05 -0.0333333 0.05 0.05 -0.0166667 0.05 0.05 0 0.05 0.05 0.0166667 0.05 0.05 0.0333333 0.05 0.0333333 0.05 0.05 0.0166667 0.05 0.05 0 0.05 0.05 -0.0166667 0.05 0.05 -0.0333333 0.05 0.05 -0.05 0.0333333 0.05 -0.05 0.0166667 0.05 -0.05 0 0.05 -0.05 -0.0166667 0.05 -0.05 -0.0333333 0.05 -0.05 -0.05 -0.0333333 -0.05 -0.05 -0.0166667 -0.05 -0.05 0 -0.05 -0.05 0.0166667 -0.05 -0.05 0.0333333 0.05 -0.05 -0.0333333 0.05 -0.05 -0.0166667 0.05 -0.05 0 0.05 -0.05 0.0166667 0.05 -0.05 0.0333333 0.05 0.05 -0.0333333 0.05 0.05 -0.0166667 0.05 0.05 0 0.05 0.05 0.0166667 0.05 0.05 0.0333333 -0.05 0.05 -0.0333333 -0.05 0.05 -0.0166667 -0.05 0.05 0 -0.05 0.05 0.0166667 -0.05 0.05 0.0333333 -0.0333333 0.0333333 -0.05 -0.0333333 0.0166667 -0.05 -0.0333333 -3.55271e-18 -0.05 -0.0333333 -0.0166667 -0.05 -0.0333333 -0.0333333 -0.05 -0.0166667 0.0333333 -0.05 -0.0166667 0.0166667 -0.05 -0.0166667 -7.10543e-18 -0.05 -0.0166667 -0.0166667 -0.05 -0.0166667 -0.0333333 -0.05 1.77636e-18 0.0333333 -0.05 5.32907e-18 0.0166667 -0.05 3.55271e-18 -1.77636e-18 -0.05 7.10543e-18 -0.0166667 -0.05 3.55271e-18 -0.0333333 -0.05 0.0166667 0.0333333 -0.05 0.0166667 0.0166667 -0.05 0.0166667 -7.10543e-18 -0.05 0.0166667 -0.0166667 -0.05 0.0166667 -0.0333333 -0.05 0.0333333 0.0333333 -0.05 0.0333333 0.0166667 -0.05 0.0333333 -1.77636e-18 -0.05 0.0333333 -0.0166667 -0.05 0.0333333 -0.0333333 -0.05 -0.0333333 -0.0333333 0.05 -0.0333333 -0.0166667 0.05 -0.0333333 0 0.05 -0.0333333 0.0166667 0.05 -0.0333333 0.0333333 0.05 -0.0166667 -0.0333333 0.05 -0.0166667 -0.0166667 0.05 -0.0166667 0 0.05 -0.0166667 0.0166667 0.05 -0.0166667 0.0333333 0.05 0 -0.0333333 0.05 0 -0.0166667 0.05 0 0 0.05 0 0.0166667 0.05 0 0.0333333 0.05 0.0166667 -0.0333333 0.05 0.0166667 -0.0166667 0.05 0.0166667 0 0.05 0.0166667 0.0166667 0.05 0.0166667 0.0333333 0.05 0.0333333 -0.0333333 0.05 0.0333333 -0.0166667 0.05 0.0333333 1.77636e-18 0.05 0.0333333 0.0166667 0.05 0.0333333 0.0333333 0.05 -0.0333333 -0.05 -0.0333333 -0.0333333 -0.05 -0.0166667 -0.0333333 -0.05 0 -0.0333333 -0.05 0.0166667 -0.0333333 -0.05 0.0333333 -0.0166667 -0.05 -0.0333333 -0.0166667 -0.05 -0.0166667 -0.0166667 -0.05 0 -0.0166667 -0.05 0.0166667 -0.0166667 -0.05 0.0333333 0 -0.05 -0.0333333 0 -0.05 -0.0166667 0 -0.05 0 0 -0.05 0.0166667 0 -0.05 0.0333333 0.0166667 -0.05 -0.0333333 0.0166667 -0.05 -0.0166667 0.0166667 -0.05 0 0.0166667 -0.05 0.0166667 0.0166667 -0.05 0.0333333 0.0333333 -0.05 -0.0333333 0.0333333 -0.05 -0.0166667 0.0333333 -0.05 1.77636e-18 0.0333333 -0.05 0.0166667 0.0333333 -0.05 0.0333333 0.05 -0.0333333 -0.0333333 0.05 -0.0333333 -0.0166667 0.05 -0.0333333 0 0.05 -0.0333333 0.0166667 0.05 -0.0333333 0.0333333 0.05 -0.0166667 -0.0333333 0.05 -0.0166667 -0.0166667 0.05 -0.0166667 0 0.05 -0.0166667 0.0166667 0.05 -0.0166667 0.0333333 0.05 0 -0.0333333 0.05 0 -0.0166667 0.05 0 0 0.05 0 0.0166667 0.05 0 0.0333333 0.05 0.0166667 -0.0333333 0.05 0.0166667 -0.0166667 0.05 0.0166667 0 0.05 0.0166667 0.0166667 0.05 0.0166667 0.0333333 0.05 0.0333333 -0.0333333 0.05 0.0333333 -0.0166667 0.05 0.0333333 1.77636e-18 0.05 0.0333333 0.0166667 0.05 0.0333333 0.0333333 0.0333333 0.05 -0.0333333 0.0333333 0.05 -0.0166667 0.0333333 0.05 0 0.0333333 0.05 0.0166667 0.0333333 0.05 0.0333333 0.0166667 0.05 -0.0333333 0.0166667 0.05 -0.0166667 0.0166667 0.05 0 0.0166667 0.05 0.0166667 0.0166667 0.05 0.0333333 0 0.05 -0.0333333 0 0.05 -0.0166667 0 0.05 0 0 0.05 0.0166667 0 0.05 0.0333333 -0.0166667 0.05 -0.0333333 -0.0166667 0.05 -0.0166667 -0.0166667 0.05 0 -0.0166667 0.05 0.0166667 -0.0166667 0.05 0.0333333 -0.0333333 0.05 -0.0333333 -0.0333333 0.05 -0.0166667 -0.0333333 0.05 1.77636e-18 -0.0333333 0.05 0.0166667 -0.0333333 0.05 0.0333333 -0.05 0.0333333 -0.0333333 -0.05 0.0333333 -0.0166667 -0.05 0.0333333 0 -0.05 0.0333333 0.0166667 -0.05 0.0333333 0.0333333 -0.05 0.0166667 -0.0333333 -0.05 0.0166667 -0.0166667 -0.05 0.0166667 0 -0.05 0.0166667 0.0166667 -0.05 0.0166667 0.0333333 -0.05 0 -0.0333333 -0.05 0 -0.0166667 -0.05 0 0 -0.05 0 0.0166667 -0.05 0 0.0333333 -0.05 -0.0166667 -0.0333333 -0.05 -0.0166667 -0.0166667 -0.05 -0.0166667 0 -0.05 -0.0166667 0.0166667 -0.05 -0.0166667 0.0333333 -0.05 -0.0333333 -0.0333333 -0.05 -0.0333333 -0.0166667 -0.05 -0.0333333 1.77636e-18 -0.05 -0.0333333 0.0166667 -0.05 -0.0333333 0.0333333 -0.0333333 0.0333333 -0.0333333 -0.0333333 0.0333333 -0.0166667 -0.0333333 0.0333333 4.44089e-19 -0.0333333 0.0333333 0.0166667 -0.0333333 0.0333333 0.0333333 -0.0333333 0.0166667 -0.0333333 -0.0333333 0.0166667 -0.0166667 -0.0333333 0.0166667 -4.44089e-18 -0.0333333 0.0166667 0.0166667 -0.0333333 0.0166667 0.0333333 -0.0333333 -6.66134e-18 -0.0333333 -0.0333333 -9.76996e-18 -0.0166667 -0.0333333 -1.77636e-18 -1.77636e-18 -0.0333333 -1.77636e-18 0.0166667 -0.0333333 3.55271e-18 0.0333333 -0.0333333 -0.0166667 -0.0333333 -0.0333333 -0.0166667 -0.0166667 -0.0333333 -0.0166667 1.77636e-18 -0.0333333 -0.0166667 0.0166667 -0.0333333 -0.0166667 0.0333333 -0.0333333 -0.0333333 -0.0333333 -0.0333333 -0.0333333 -0.0166667 -0.0333333 -0.0333333 0 -0.0333333 -0.0333333 0.0166667 -0.0333333 -0.0333333 0.0333333 -0.0166667 0.0333333 -0.0333333 -0.0166667 0.0333333 -0.0166667 -0.0166667 0.0333333 2.66454e-18 -0.0166667 0.0333333 0.0166667 -0.0166667 0.0333333 0.0333333 -0.0166667 0.0166667 -0.0333333 -0.0166667 0.0166667 -0.0166667 -0.0166667 0.0166667 -1.77636e-18 -0.0166667 0.0166667 0.0166667 -0.0166667 0.0166667 0.0333333 -0.0166667 -1.06581e-17 -0.0333333 -0.0166667 -1.15463e-17 -0.0166667 -0.0166667 -3.55271e-18 0 -0.0166667 -8.88178e-18 0.0166667 -0.0166667 -1.77636e-18 0.0333333 -0.0166667 -0.0166667 -0.0333333 -0.0166667 -0.0166667 -0.0166667 -0.0166667 -0.0166667 3.55271e-18 -0.0166667 -0.0166667 0.0166667 -0.0166667 -0.0166667 0.0333333 -0.0166667 -0.0333333 -0.0333333 -0.0166667 -0.0333333 -0.0166667 -0.0166667 -0.0333333 0 -0.0166667 -0.0333333 0.0166667 -0.0166667 -0.0333333 0.0333333 3.44169e-18 0.0333333 -0.0333333 1.02141e-17 0.0333333 -0.0166667 2.66454e-18 0.0333333 -8.88178e-19 6.21725e-18 0.0333333 0.0166667 1.33227e-18 0.0333333 0.0333333 7.99361e-18 0.0166667 -0.0333333 8.43769e-18 0.0166667 -0.0166667 8.88178e-19 0.0166667 8.88178e-19 7.99361e-18 0.0166667 0.0166667 3.55271e-18 0.0166667 0.0333333 3.55271e-18 -1.77636e-18 -0.0333333 9.76996e-18 -9.76996e-18 -0.0166667 0 -8.88178e-19 -8.88178e-19 8.88178e-18 -8.88178e-18 0.0166667 1.77636e-18 -1.77636e-18 0.0333333 1.02141e-17 -0.0166667 -0.0333333 1.24345e-17 -0.0166667 -0.0166667 3.55271e-18 -0.0166667 -1.77636e-18 8.88178e-18 -0.0166667 0.0166667 3.55271e-18 -0.0166667 0.0333333 5.77316e-18 -0.0333333 -0.0333333 4.44089e-18 -0.0333333 -0.0166667 1.77636e-18 -0.0333333 1.77636e-18 5.32907e-18 -0.0333333 0.0166667 0 -0.0333333 0.0333333 0.0166667 0.0333333 -0.0333333 0.0166667 0.0333333 -0.0166667 0.0166667 0.0333333 -2.66454e-18 0.0166667 0.0333333 0.0166667 0.0166667 0.0333333 0.0333333 0.0166667 0.0166667 -0.0333333 0.0166667 0.0166667 -0.0166667 0.0166667 0.0166667 3.10862e-18 0.0166667 0.0166667 0.0166667 0.0166667 0.0166667 0.0333333 0.0166667 -1.24345e-17 -0.0333333 0.0166667 -1.37668e-17 -0.0166667 0.0166667 -3.55271e-18 -1.77636e-18 0.0166667 -6.21725e-18 0.0166667 0.0166667 -8.88178e-19 0.0333333 0.0166667 -0.0166667 -0.0333333 0.0166667 -0.0166667 -0.0166667 0.0166667 -0.0166667 2.66454e-18 0.0166667 -0.0166667 0.0166667 0.0166667 -0.0166667 0.0333333 0.0166667 -0.0333333 -0.0333333 0.0166667 -0.0333333 -0.0166667 0.0166667 -0.0333333 0 0.0166667 -0.0333333 0.0166667 0.0166667 -0.0333333 0.0333333 0.0333333 0.0333333 -0.0333333 0.0333333 0.0333333 -0.0166667 0.0333333 0.0333333 3.33067e-19 0.0333333 0.0333333 0.0166667 0.0333333 0.0333333 0.0333333 0.0333333 0.0166667 -0.0333333 0.0333333 0.0166667 -0.0166667 0.0333333 0.0166667 1.11022e-18 0.0333333 0.0166667 0.0166667 0.0333333 0.0166667 0.0333333 0.0333333 -4.44089e-18 -0.0333333 0.0333333 -4.21885e-18 -0.0166667 0.0333333 8.88178e-19 8.88178e-19 0.0333333 -1.33227e-18 0.0166667 0.0333333 3.55271e-18 0.0333333 0.0333333 -0.0166667 -0.0333333 0.0333333 -0.0166667 -0.0166667 0.0333333 -0.0166667 2.22045e-18 0.0333333 -0.0166667 0.0166667 0.0333333 -0.0166667 0.0333333 0.0333333 -0.0333333 -0.0333333 0.0333333 -0.0333333 -0.0166667 0.0333333 -0.0333333 2.22045e-18 0.0333333 -0.0333333 0.0166667 0.0333333 -0.0333333 0.0333333 </DataArray>
</Points>
<Cells>
<DataArray type="Int32" Name="connectivity" format="ascii">
68 22 3 23 218 188 63 193 218 188 63 193 219 189 64 194 219 189 64 194 220 190 65 195 220 190 65 195 221 191 66 196 221 191 66 196 222 192 67 197 222 192 67 197 97 42 7 43 69 68 23 24 223 218 193 198 223 218 193 198 224 219 194 199 224 219 194 199 225 220 195 200 225 220 195 200 226 221 196 201 226 221 196 201 227 222 197 202 227 222 197 202 96 97 43 44 70 69 24 25 228 223 198 203 228 223 198 203 229 224 199 204 229 224 199 204 230 225 200 205 230 225 200 205 231 226 201 206 231 226 201 206 232 227 202 207 232 227 202 207 95 96 44 45 71 70 25 26 233 228 203 208 233 228 203 208 234 229 204 209 234 229 204 209 235 230 205 210 235 230 205 210 236 231 206 211 236 231 206 211 237 232 207 212 237 232 207 212 94 95 45 46 72 71 26 27 238 233 208 213 238 233 208 213 239 234 209 214 239 234 209 214 240 235 210 215 240 235 210 215 241 236 211 216 241 236 211 216 242 237 212 217 242 237 212 217 93 94 46 47 8 72 27 0 118 238 213 48 118 238 213 48 119 239 214 49 119 239 214 49 120 240 215 50 120 240 215 50 121 241 216 51 121 241 216 51 122 242 217 52 122 242 217 52 28 93 47 4 73 21 22 68 243 183 188 218 243 183 188 218 244 184 189 219 244 184 189 219 245 185 190 220 245 185 190 220 246 186 191 221 246 186 191 221 247 187 192 222 247 187 192 222 102 41 42 97 74 73 68 69 248 243 218 223 248 243 218 223 249 244 219 224 249 244 219 224 250 245 220 225 250 245 220 225 251 246 221 226 251 246 221 226 252 247 222 227 252 247 222 227 101 102 97 96 75 74 69 70 253 248 223 228 253 248 223 228 254 249 224 229 254 249 224 229 255 250 225 230 255 250 225 230 256 251 226 231 256 251 226 231 257 252 227 232 257 252 227 232 100 101 96 95 76 75 70 71 258 253 228 233 258 253 228 233 259 254 229 234 259 254 229 234 260 255 230 235 260 255 230 235 261 256 231 236 261 256 231 236 262 257 232 237 262 257 232 237 99 100 95 94 77 76 71 72 263 258 233 238 263 258 233 238 264 259 234 239 264 259 234 239 265 260 235 240 265 260 235 240 266 261 236 241 266 261 236 241 267 262 237 242 267 262 237 242 98 99 94 93 9 77 72 8 123 263 238 118 123 263 238 118 124 264 239 119 124 264 239 119 125 265 240 120 125 265 240 120 126 266 241 121 126 266 241 121 127 267 242 122 127 267 242 122 29 98 93 28 78 20 21 73 268 178 183 243 268 178 183 243 269 179 184 244 269 179 184 244 270 180 185 245 270 180 185 245 271 181 186 246 271 181 186 246 272 182 187 247 272 182 187 247 107 40 41 102 79 78 73 74 273 268 243 248 273 268 243 248 274 269 244 249 274 269 244 249 275 270 245 250 275 270 245 250 276 271 246 251 276 271 246 251 277 272 247 252 277 272 247 252 106 107 102 101 80 79 74 75 278 273 248 253 278 273 248 253 279 274 249 254 279 274 249 254 280 275 250 255 280 275 250 255 281 276 251 256 281 276 251 256 282 277 252 257 282 277 252 257 105 106 101 100 81 80 75 76 283 278 253 258 283 278 253 258 284 279 254 259 284 279 254 259 285 280 255 260 285 280 255 260 286 281 256 261 286 281 256 261 287 282 257 262 287 282 257 262 104 105 100 99 82 81 76 77 288 283 258 263 288 283 258 263 289 284 259 264 289 284 259 264 290 285 260 265 290 285 260 265 291 286 261 266 291 286 261 266 292 287 262 267 292 287 262 267 103 104 99 98 10 82 77 9 128 288 263 123 128 288 263 123 129 289 264 124 129 289 264 124 130 290 265 125 130 290 265 125 131 291 266 126 131 291 266 126 132 292 267 127 132 292 267 127 30 103 98 29 83 19 20 78 293 173 178 268 293 173 178 268 294 174 179 269 294 174 179 269 295 175 180 270 295 175 180 270 296 176 181 271 296 176 181 271 297 177 182 272 297 177 182 272 112 39 40 107 84 83 78 79 298 293 268 273 298 293 268 273 299 294 269 274 299 294 269 274 300 295 270 275 300 295 270 275 301 296 271 276 301 296 271 276 302 297 272 277 302 297 272 277 111 112 107 106 85 84 79 80 303 298 273 278 303 298 273 278 304 299 274 279 304 299 274 279 305 300 275 280 305 300 275 280 306 301 276 281 306 301 276 281 307 302 277 282 307 302 277 282 110 111 106 105 86 85 80 81 308 303 278 283 308 303 278 283 309 304 279 284 309 304 279 284 310 305 280 285 310 305 280 285 311 306 281 286 311 306 281 286 312 307 282 287 312 307 282 287 109 110 105 104 87 86 81 82 313 308 283 288 313 308 283 288 314 309 284 289 314 309 284 289 315 310 285 290 315 310 285 290 316 311 286 291 316 311 286 291 317 312 287 292 317 312 287 292 108 109 104 103 11 87 82 10 133 313 288 128 133 313 288 128 134 314 289 129 134 314 289 129 135 315 290 130 135 315 290 130 136 316 291 131 136 316 291 131 137 317 292 132 137 317 292 132 31 108 103 30 88 18 19 83 318 168 173 293 318 168 173 293 319 169 174 294 319 169 174 294 320 170 175 295 320 170 175 295 321 171 176 296 321 171 176 296 322 172 177 297 322 172 177 297 117 38 39 112 89 88 83 84 323 318 293 298 323 318 293 298 324 319 294 299 324 319 294 299 325 320 295 300 325 320 295 300 326 321 296 301 326 321 296 301 327 322 297 302 327 322 297 302 116 117 112 111 90 89 84 85 328 323 298 303 328 323 298 303 329 324 299 304 329 324 299 304 330 325 300 305 330 325 300 305 331 326 301 306 331 326 301 306 332 327 302 307 332 327 302 307 115 116 111 110 91 90 85 86 333 328 303 308 333 328 303 308 334 329 304 309 334 329 304 309 335 330 305 310 335 330 305 310 336 331 306 311 336 331 306 311 337 332 307 312 337 332 307 312 114 115 110 109 92 91 86 87 338 333 308 313 338 333 308 313 339 334 309 314 339 334 309 314 340 335 310 315 340 335 310 315 341 336 311 316 341 336 311 316 342 337 312 317 342 337 312 317 113 114 109 108 12 92 87 11 138 338 313 133 138 338 313 133 139 339 314 134 139 339 314 134 140 340 315 135 140 340 315 135 141 341 316 136 141 341 316 136 142 342 317 137 142 342 317 137 32 113 108 31 17 2 18 88 163 58 168 318 163 58 168 318 164 59 169 319 164 59 169 319 165 60 170 320 165 60 170 320 166 61 171 321 166 61 171 321 167 62 172 322 167 62 172 322 37 6 38 117 16 17 88 89 158 163 318 323 158 163 318 323 159 164 319 324 159 164 319 324 160 165 320 325 160 165 320 325 161 166 321 326 161 166 321 326 162 167 322 327 162 167 322 327 36 37 117 116 15 16 89 90 153 158 323 328 153 158 323 328 154 159 324 329 154 159 324 329 155 160 325 330 155 160 325 330 156 161 326 331 156 161 326 331 157 162 327 332 157 162 327 332 35 36 116 115 14 15 90 91 148 153 328 333 148 153 328 333 149 154 329 334 149 154 329 334 150 155 330 335 150 155 330 335 151 156 331 336 151 156 331 336 152 157 332 337 152 157 332 337 34 35 115 114 13 14 91 92 143 148 333 338 143 148 333 338 144 149 334 339 144 149 334 339 145 150 335 340 145 150 335 340 146 151 336 341 146 151 336 341 147 152 337 342 147 152 337 342 33 34 114 113 1 13 92 12 53 143 338 138 53 143 338 138 54 144 339 139 54 144 339 139 55 145 340 140 55 145 340 140 56 146 341 141 56 146 341 141 57 147 342 142 57 147 342 142 5 33 113 32 </DataArray>
<DataArray type="Int32" Name="offsets" format="ascii">
8 16 24 32 40 48 56 64 72 80 88 96 104 112 120 128 136 144 152 160 168 176 184 192 200 208 216 224 232 240 248 256 264 272 280 288 296 304 312 320 328 336 344 352 360 368 376 384 392 400 408 416 424 432 440 448 456 464 472 480 488 496 504 512 520 528 536 544 552 560 568 576 584 592 600 608 616 624 632 640 648 656 664 672 680 688 696 704 712 720 728 736 744 752 760 768 776 784 792 800 808 816 824 832 840 848 856 864 872 880 888 896 904 912 920 928 936 944 952 960 968 976 984 992 1000 1008 1016 1024 1032 1040 1048 1056 1064 1072 1080 1088 1096 1104 1112 1120 1128 1136 1144 1152 1160 1168 1176 1184 1192 1200 1208 1216 1224 1232 1240 1248 1256 1264 1272 1280 1288 1296 1304 1312 1320 1328 1336 1344 1352 1360 1368 1376 1384 1392 1400 1408 1416 1424 1432 1440 1448 1456 1464 1472 1480 1488 1496 1504 1512 1520 1528 1536 1544 1552 1560 1568 1576 1584 1592 1600 1608 1616 1624 1632 1640 1648 1656 1664 1672 1680 1688 1696 1704 1712 1720 1728 </DataArray>
<DataArray type="UInt8" Name="types" format="ascii">
12 12 12 12 12 12 12 12 12 12 12 12 12 12 12 12 12 12 12 12 12 12 12 12 12 12 12 12 12 12 12 12 12 12 12 12 12 12 12 12 12 12 12 12 12 12 12 12 12 12 12 12 12 12 12 12 12 12 12 12 12 12 12 12 12 12 12 12 12 12 12 12 12 12 12 12 12 12 12 12 12 12 12 12 12 12 12 12 12 12 12 12 12 12 12 12 12 12 12 12 12 12 12 12 12 12 12 12 12 12 12 12 12 12 12 12 12 12 12 12 12 12 12 12 12 12 12 12 12 12 12 12 12 12 12 12 12 12 12 12 12 12 12 12 12 12 12 12 12 12 12 12 12 12 12 12 12 12 12 12 12 12 12 12 12 12 12 12 12 12 12 12 12 12 12 12 12 12 12 12 12 12 12 12 12 12 12 12 12 12 12 12 12 12 12 12 12 12 12 12 12 12 12 12 12 12 12 12 12 12 12 12 12 12 12 12 </DataArray>
</Cells>
<CellData Scalars="scalars">
<DataArray type="Float32" Name="number_density" format="ascii">
6.912e+15 6.048e+15 7.992e+15 7.992e+15 7.56e+15 8.208e+15 5.4e+15 9.936e+15 5.616e+15 5.832e+15 9.72e+15 8.64e+15 7.128e+15 6.912e+15 6.048e+15 5.184e+15 6.48e+15 1.0152e+16 6.048e+15 9.504e+15 5.4e+15 6.696e+15 9.072e+15 9.504e+15 7.344e+15 5.616e+15 9.936e+15 1.0152e+16 7.128e+15 7.992e+15 9.504e+15 6.48e+15 6.912e+15 5.832e+15 6.48e+15 6.264e+15 6.264e+15 5.832e+15 9.936e+15 9.072e+15 9.072e+15 7.56e+15 4.32e+15 6.696e+15 1.1016e+16 1.7712e+16 1.512e+16 1.1664e+16 6.048e+15 9.288e+15 1.296e+16 1.512e+16 1.512e+16 9.72e+15 4.32e+15 9.72e+15 1.1664e+16 1.3392e+16 1.2528e+16 8.64e+15 6.48e+15 8.208e+15 1.1448e+16 1.5552e+16 9.072e+15 1.2096e+16 7.56e+15 9.288e+15 7.776e+15 9.288e+15 6.696e+15 7.992e+15 4.104e+15 8.208e+15 9.72e+15 1.2744e+16 1.188e+16 1.1448e+16 4.752e+15 9.72e+15 1.3608e+16 2.3328e+16 1.9872e+16 1.296e+16 3.672e+15 1.0584e+16 1.5336e+16 4.0608e+16 3.9096e+16 1.3824e+16 3.888e+15 8.64e+15 1.2312e+16 2.6568e+16 2.3544e+16 1.0368e+16 6.264e+15 1.0584e+16 1.3176e+16 1.2312e+16 1.512e+16 8.856e+15 4.104e+15 6.696e+15 7.128e+15 8.208e+15 7.992e+15 8.424e+15 6.048e+15 8.208e+15 6.912e+15 1.0584e+16 9.072e+15 1.1448e+16 7.128e+15 9.072e+15 1.3176e+16 2.3328e+16 1.9008e+16 1.3824e+16 3.24e+15 8.424e+15 1.62e+16 3.9528e+16 3.0024e+16 1.512e+16 5.184e+15 1.0152e+16 1.4688e+16 2.4192e+16 1.9872e+16 9.936e+15 5.4e+15 8.208e+15 8.64e+15 1.188e+16 1.1016e+16 1.1016e+16 6.264e+15 6.696e+15 6.48e+15 7.128e+15 7.56e+15 9.288e+15 6.696e+15 8.208e+15 1.08e+16 1.2528e+16 1.1448e+16 1.0584e+16 7.344e+15 8.64e+15 1.3176e+16 1.2744e+16 1.5552e+16 8.856e+15 5.4e+15 1.0584e+16 1.3824e+16 1.944e+16 1.728e+16 1.0152e+16 6.912e+15 9.936e+15 1.08e+16 1.1016e+16 1.512e+16 1.1664e+16 5.832e+15 9.288e+15 9.504e+15 8.856e+15 9.072e+15 7.992e+15 5.4e+15 6.48e+15 6.264e+15 7.128e+15 9.072e+15 9.504e+15 8.64e+15 6.912e+15 9.288e+15 8.856e+15 8.856e+15 9.72e+15 5.832e+15 7.56e+15 8.64e+15 9.72e+15 1.1664e+16 7.992e+15 6.048e+15 8.64e+15 9.072e+15 8.856e+15 9.72e+15 8.856e+15 5.184e+15 4.536e+15 6.264e+15 6.264e+15 7.128e+15 8.208e+15 6.912e+15 8.208e+15 6.048e+15 5.4e+15 7.776e+15 9.504e+15 8.424e+15 6.048e+15 5.616e+15 7.128e+15 8.424e+15 9.504e+15 </DataArray>
<DataArray type="Float32" Name="potential" format="ascii">
0 0 0 0 0 0 0 0 0 0 0 0 0 0 0 0 0 0 0 0 0 0 0 0 0 0 0 0 0 0 0 0 0 0 0 0 0 0 0 0 0 0 0 0 0 0 0 0 0 0 0 0 0 0 0 0 0 0 0 0 0 0 0 0 0 0 0 0 0 0 0 0 0 0 0 0 0 0 0 0 0 0 0 0 0 0 0 0 0 0 0 0 0 0 0 0 0 0 0 0 0 0 0 0 0 0 0 0 0 0 0 0 0 0 0 0 0 0 0 0 0 0 0 0 0 0 0 0 0 0 0 0 0 0 0 0 0 0 0 0 0 0 0 0 0 0 0 0 0 0 0 0 0 0 0 0 0 0 0 0 0 0 0 0 0 0 0 0 0 0 0 0 0 0 0 0 0 0 0 0 0 0 0 0 0 0 0 0 0 0 0 0 0 0 0 0 0 0 0 0 0 0 0 0 0 0 0 0 0 0 0 0 0 0 0 0 </DataArray>
<DataArray type="Float32" Name="temperature" format="ascii">
254.863 314.296 299.163 301.321 310.792 276.32 170.163 273.642 302.755 350.844 369.142 310.749 223.246 240.867 413.574 491.641 369.387 265.476 249.961 331.068 317.264 343.089 383.315 314.015 208.031 224.273 288.804 250.484 309.268 228.184 225.539 338.122 270.214 314.484 231.695 251.937 197.878 231.623 357.516 365.834 251.512 316.619 212.365 354.962 437.579 484.884 402.916 336.36 285.742 381.805 509.812 505.677 518.816 310.521 299.144 275.973 388.607 528.09 373.206 378.153 354.559 313.942 363.973 433.816 351.338 276.288 249.191 266.956 232.129 331.643 206.638 261.431 280.261 275.639 281.174 376.721 328.842 347.115 228.058 329.556 522.897 672.085 565.907 335.259 302.818 373.566 532.988 886.615 843.034 410.782 358.153 307.982 494.252 711.774 709.037 353.575 433.702 321.122 356.676 508.938 363.347 269.967 294.251 279.166 286.214 322.265 314.649 285.008 215.801 226.378 346.545 420.759 363.788 280.521 249.738 319.551 503.278 680.016 507.463 359.591 265.534 245.959 562.64 853.311 752.718 374.131 360.221 401.464 607.84 690.077 648.343 287.384 225.507 331.996 422.213 391.677 374.329 274.635 348.757 248.454 432.882 298.514 356.615 290.39 255.629 294.562 364.19 374.33 279.885 224.422 255.872 340.073 376.367 335.051 435.212 274.44 318.194 279.12 384.839 530.064 421.927 313.806 256.018 357.306 461.102 536.943 396.573 365.553 315.489 276.645 256.942 355.588 373.799 234.565 216.023 254.912 337.202 309.537 258.957 237.812 299.664 245.234 237.993 372.159 256.962 328.404 290.784 296.387 274.628 294.9 347.015 321.646 224.665 300.795 342.609 387.657 321.684 304.391 240.375 243.751 274.331 296.753 292.891 250.469 255.05 246.505 270.46 323.988 242.207 298.532 247.569 236.772 278.019 226.921 238.785 223.687 </DataArray>
<DataArray type="Float32" Name="velocity" format="ascii">
141.635 225.764 327.529 250.419 159.759 46.1839 317.496 356.091 445.986 410.27 136.597 135.197 295.247 414.015 638.499 356.399 276.488 147.89 288.363 438.217 503.413 459.228 308.513 229.978 204.703 299.759 337.857 351.096 231.214 199.029 105.731 148.317 260.587 225.17 192.291 182.061 210.702 368.025 462.162 354.351 238.848 126.931 338.373 523.51 645.972 541.089 398.033 186.063 484.529 754.768 829.847 687.492 425.958 256.964 540.798 678.105 783.071 712.498 381.009 334.732 297.223 516.246 622.526 509.373 377.756 236.271 153.676 327.043 336.932 351.555 189.258 118.639 365.072 548.299 598.95 502.895 173.091 86.6757 440.645 775.004 838.336 646.185 285.71 144.061 654.576 991.364 1199.95 862.242 423.979 231.474 540.854 847.402 1104.95 896.168 496.382 226.806 396.508 633.898 782.095 704.399 486.02 288.921 242.728 432.623 493.151 345.212 179.401 169.387 327.563 464.272 578.322 420.223 163.789 31.5271 431.936 740.83 811.359 627.584 217.11 103.32 555.448 1002.03 1138.61 872.217 292.226 136.265 607.387 930.844 1092.65 908.723 495.25 296.944 448.894 703.349 894.902 733.566 446.47 326.222 296.218 435.498 545.203 467.423 288.571 116.223 244.548 351.38 358.84 256.16 85.4445 77.7554 296.531 512.986 682.942 478.238 237.441 108.045 434.554 708.429 904.648 667.844 278.996 201.133 427.298 729.483 886.111 778.134 477.35 257.529 279.469 566.983 676.208 627.108 376.355 271.472 246.847 339.448 432.273 310.902 321.085 147.965 109.78 155.253 246.059 205.975 49.8145 142.742 193.37 334.17 404.801 261.725 181.409 106.17 262.001 452.845 531.186 391.592 264.695 124.283 335.503 501.11 580.439 409.163 237.644 151.502 161.667 412.031 449.598 383.819 342.556 128.292 90.3565 186.469 301.38 278.206 164.56 145.104 </DataArray>
<DataArray type="Float32" Name="E_field" format="ascii">
0 0 0 0 0 0 0 0 0 0 0 0 0 0 0 0 0 0 0 0 0 0 0 0 0 0 0 0 0 0 0 0 0 0 0 0 0 0 0 0 0 0 0 0 0 0 0 0 0 0 0 0 0 0 0 0 0 0 0 0 0 0 0 0 0 0 0 0 0 0 0 0 0 0 0 0 0 0 0 0 0 0 0 0 0 0 0 0 0 0 0 0 0 0 0 0 0 0 0 0 0 0 0 0 0 0 0 0 0 0 0 0 0 0 0 0 0 0 0 0 0 0 0 0 0 0 0 0 0 0 0 0 0 0 0 0 0 0 0 0 0 0 0 0 0 0 0 0 0 0 0 0 0 0 0 0 0 0 0 0 0 0 0 0 0 0 0 0 0 0 0 0 0 0 0 0 0 0 0 0 0 0 0 0 0 0 0 0 0 0 0 0 0 0 0 0 0 0 0 0 0 0 0 0 0 0 0 0 0 0 0 0 0 0 0 0 </DataArray>
</CellData>
<PointData Scalars="number_density">
<DataArray type="Float32" Name="number_density" format="ascii">
9.504e+15 8.424e+15 8.64e+15 6.912e+15 6.264e+15 9.504e+15 9.72e+15 8.208e+15 8.532e+15 5.832e+15 5.184e+15 5.832e+15 6.912e+15 7.668e+15 6.048e+15 5.616e+15 5.94e+15 7.236e+15 7.668e+15 6.372e+15 5.076e+15 5.184e+15 6.588e+15 6.156e+15 6.264e+15 6.588e+15 6.696e+15 8.424e+15 7.128e+15 8.208e+15 8.856e+15 9.396e+15 9.504e+15 9.504e+15 8.856e+15 8.532e+15 8.424e+15 8.856e+15 1.0152e+16 1.1016e+16 1.1448e+16 9.504e+15 7.884e+15 8.424e+15 9.396e+15 9.828e+15 8.748e+15 7.128e+15 7.992e+15 6.696e+15 6.372e+15 6.156e+15 6.372e+15 7.236e+15 5.832e+15 6.372e+15 7.776e+15 8.964e+15 7.776e+15 8.1e+15 9.072e+15 8.856e+15 9.288e+15 6.48e+15 7.02e+15 7.992e+15 7.776e+15 7.884e+15 5.724e+15 5.724e+15 5.886e+15 6.048e+15 7.722e+15 4.86e+15 4.698e+15 4.482e+15 5.238e+15 6.102e+15 5.508e+15 4.698e+15 3.996e+15 5.184e+15 5.508e+15 6.804e+15 5.778e+15 5.184e+15 5.832e+15 5.724e+15 7.128e+15 6.156e+15 5.886e+15 6.21e+15 6.642e+15 8.586e+15 9.558e+15 9.504e+15 1.0044e+16 9.018e+15 9.342e+15 9.99e+15 1.0638e+16 1.2042e+16 1.0908e+16 9.396e+15 1.0044e+16 1.2312e+16 1.3932e+16 1.242e+16 9.45e+15 1.0152e+16 1.1718e+16 1.1988e+16 1.1178e+16 9.126e+15 9.342e+15 9.72e+15 8.964e+15 9.288e+15 8.208e+15 7.614e+15 7.452e+15 7.074e+15 6.858e+15 6.912e+15 7.722e+15 8.1e+15 8.046e+15 7.776e+15 5.94e+15 6.75e+15 7.236e+15 7.722e+15 8.316e+15 6.21e+15 6.48e+15 6.75e+15 7.722e+15 8.856e+15 6.588e+15 6.102e+15 6.534e+15 7.938e+15 9.126e+15 7.398e+15 6.48e+15 6.048e+15 7.182e+15 8.802e+15 6.21e+15 6.264e+15 5.994e+15 6.642e+15 8.154e+15 6.102e+15 7.128e+15 7.614e+15 7.992e+15 8.478e+15 7.02e+15 8.478e+15 9.072e+15 9.99e+15 9.558e+15 7.236e+15 8.1e+15 9.126e+15 9.774e+15 9.558e+15 7.614e+15 8.802e+15 1.0368e+16 1.0422e+16 1.0152e+16 7.29e+15 8.532e+15 1.0206e+16 1.0908e+16 1.0638e+16 6.642e+15 8.262e+15 9.99e+15 1.107e+16 1.0962e+16 6.102e+15 8.424e+15 1.0368e+16 1.0692e+16 9.99e+15 6.264e+15 7.452e+15 8.748e+15 8.424e+15 8.1e+15 7.074e+15 7.398e+15 6.858e+15 7.776e+15 8.532e+15 7.344e+15 7.128e+15 5.67e+15 6.804e+15 8.748e+15 7.398e+15 6.966e+15 5.832e+15 6.858e+15 8.802e+15 7.128e+15 7.614e+15 8.046e+15 8.262e+15 8.424e+15 7.236e+15 7.236e+15 8.208e+15 7.398e+15 6.966e+15 6.426e+15 7.884e+15 9.396e+15 1.026e+16 9.693e+15 6.966e+15 8.559e+15 9.936e+15 1.1286e+16 1.0827e+16 7.371e+15 8.937e+15 9.558e+15 1.0449e+16 1.0152e+16 7.155e+15 8.937e+15 1.053e+16 1.0449e+16 9.504e+15 7.56e+15 8.208e+15 9.612e+15 8.775e+15 7.965e+15 6.237e+15 9.342e+15 1.3392e+16 1.485e+16 1.2447e+16 6.885e+15 1.1151e+16 1.8711e+16 2.3247e+16 1.7172e+16 7.02e+15 1.1313e+16 1.8495e+16 2.3247e+16 1.6605e+16 7.263e+15 1.0719e+16 1.4553e+16 1.6011e+16 1.2528e+16 7.398e+15 9.288e+15 1.0611e+16 1.053e+16 9.531e+15 7.155e+15 9.828e+15 1.4175e+16 1.6227e+16 1.3689e+16 7.074e+15 1.2015e+16 2.3139e+16 2.9349e+16 2.0466e+16 6.723e+15 1.2042e+16 2.3679e+16 3.0429e+16 2.0223e+16 7.29e+15 1.08e+16 1.5471e+16 1.8063e+16 1.3716e+16 6.777e+15 8.451e+15 9.369e+15 1.0152e+16 9.909e+15 7.668e+15 9.774e+15 1.2906e+16 1.4283e+16 1.2474e+16 7.479e+15 1.1637e+16 1.8927e+16 2.2113e+16 1.6227e+16 7.479e+15 1.1826e+16 1.8711e+16 2.2059e+16 1.6146e+16 7.614e+15 1.0152e+16 1.2447e+16 1.3878e+16 1.1961e+16 6.696e+15 7.695e+15 8.235e+15 8.964e+15 9.315e+15 7.479e+15 9.153e+15 1.0719e+16 1.1421e+16 1.0584e+16 7.506e+15 1.0017e+16 1.1934e+16 1.3122e+16 1.1259e+16 7.155e+15 9.207e+15 1.0692e+16 1.1853e+16 1.1016e+16 7.101e+15 8.073e+15 8.019e+15 8.829e+15 9.558e+15 7.074e+15 7.182e+15 6.993e+15 7.857e+15 8.856e+15 </DataArray>
<DataArray type="Float32" Name="potential" format="ascii">
0 0 0 0 0 0 0 0 0 0 0 0 0 0 0 0 0 0 0 0 0 0 0 0 0 0 0 0 0 0 0 0 0 0 0 0 0 0 0 0 0 0 0 0 0 0 0 0 0 0 0 0 0 0 0 0 0 0 0 0 0 0 0 0 0 0 0 0 0 0 0 0 0 0 0 0 0 0 0 0 0 0 0 0 0 0 0 0 0 0 0 0 0 0 0 0 0 0 0 0 0 0 0 0 0 0 0 0 0 0 0 0 0 0 0 0 0 0 0 0 0 0 0 0 0 0 0 0 0 0 0 0 0 0 0 0 0 0 0 0 0 0 0 0 0 0 0 0 0 0 0 0 0 0 0 0 0 0 0 0 0 0 0 0 0 0 0 0 0 0 0 0 0 0 0 0 0 0 0 0 0 0 0 0 0 0 0 0 0 0 0 0 0 0 0 0 0 0 0 0 0 0 0 0 0 0 0 0 0 0 0 0 0 0 0 0 0 0 0 0 0 0 0 0 0 0 0 0 0 0 0 0 0 0 0 0 0 0 0 0 0 0 0 0 0 0 0 0 0 0 0 0 0 0 0 0 0 0 0 0 0 0 0 0 0 0 0 0 0 0 0 0 0 0 0 0 0 0 0 0 0 0 0 0 0 0 0 0 0 0 0 0 0 0 0 0 0 0 0 0 0 0 0 0 0 0 0 0 0 0 0 0 0 0 0 0 0 0 0 0 0 0 0 0 0 0 0 0 0 0 0 0 0 0 0 0 0 0 0 0 0 0 0 </DataArray>
<DataArray type="Float32" Name="temperature" format="ascii">