<VTKFile type="UnstructuredGrid" version="0.1" byte_order="LittleEndian">
<UnstructuredGrid>
<Piece NumberOfPoints="343" NumberOfCells="216">
<Points>
<DataArray type="Float32" NumberOfComponents="3" format="ascii">
-0.05 -0.05 -0.05 0.05 -0.05 -0.05 0.05 0.05 -0.05 -0.05 0.05 -0.05 -0.05 -0.05 0.05 0.05 -0.05 0.05 0.05 0.05 0.05 -0.05 0.05 0.05 -0.0333333 -0.05 -0.05 -0.0166667 -0.05 -0.05 0 -0.05 -0.05 0.0166667 -0.05 -0.05 0.0333333 -0.05 -0.05 0.05 -0.0333333 -0.05 0.05 -0.0166667 -0.05 0.05 0 -0.05 0.05 0.0166667 -0.05 0.05 0.0333333 -0.05 0.0333333 0.05 -0.05 0.0166667 0.05 -0.05 0 0.05 -0.05 -0.0166667 0.05 -0.05 -0.0333333 0.05 -0.05 -0.05 0.0333333 -0.05 -0.05 0.0166667 -0.05 -0.05 0 -0.05 -0.05 -0.0166667 -0.05 -0.05 -0.0333333 -0.05 -0.0333333 -0.05 0.05 -0.0166667 -0.05 0.05 0 -0.05 0.05 0.0166667 -0.05 0.05 0.0333333 -0.05 0.05 0.05 -0.0333333 0.05 0.05 -0.0166667 0.05 0.05 0 0.05 0.05 0.0166667 0.05 0.05 0.0333333 0.05 0.0333333 0.05 0.05 0.0166667 0.05 0.05 0 0.05 0.05 -0.0166667 0.05 0.05 -0.0333333 0.05 0.05 -0.05 0.0333333 0.05 -0.05 0.0166667 0.05 -0.05 0 0.05 -0.05 -0.0166667 0.05 -0.05 -0.0333333 0.05 -0.05 -0.05 -0.0333333 -0.05 -0.05 -0.0166667 -0.05 -0.05 0 -0.05 -0.05 0.0166667 -0.05 -0.05 0.0333333 0.05 -0.05 -0.0333333 0.05 -0.05 -0.0166667 0.05 -0.05 0 0.05 -0.05 0.0166667 0.05 -0.05 0.0333333 0.05 0.05 -0.0333333 0.05 0.05 -0.0166667 0.05 0.05 0 0.05 0.05 0.0166667 0.05 0.05 0.0333333 -0.05 0.05 -0.0333333 -0.05 0.05 -0.0166667 -0.05 0.05 0 -0.05 0.05 0.0166667 -0.05 0.05 0.0333333 -0.0333333 0.0333333 -0.05 -0.0333333 0.0166667 -0.05 -0.0333333 -3.55271e-18 -0.05 -0.0333333 -0.0166667 -0.05 -0.0333333 -0.0333333 -0.05 -0.0166667 0.0333333 -0.05 -0.0166667 0.0166667 -0.05 -0.0166667 -7.10543e-18 -0.05 -0.0166667 -0.0166667 -0.05 -0.0166667 -0.0333333 -0.05 1.77636e-18 0.0333333 -0.05 5.32907e-18 0.0166667 -0.05 3.55271e-18 -1.77636e-18 -0.05 7.10543e-18 -0.0166667 -0.05 3.55271e-18 -0.0333333 -0.05 0.0166667 0.0333333 -0.05 0.0166667 0.0166667 -0.05 0.0166667 -7.10543e-18 -0.05 0.0166667 -0.0166667 -0.05 0.0166667 -0.0333333 -0.05 0.0333333 0.0333333 -0.05 0.0333333 0.0166667 -0.05 0.0333333 -1.77636e-18 -0.05 0.0333333 -0.0166667 -0.05 0.0333333 -0.0333333 -0.05 -0.0333333 -0.0333333 0.05 -0.0333333 -0.0166667 0.05 -0.0333333 0 0.05 -0.0333333 0.0166667 0.05 -0.0333333 0.0333333 0.05 -0.0166667 -0.0333333 0.05 -0.0166667 -0.0166667 0.05 -0.0166667 0 0.05 -0.0166667 0.0166667 0.05 -0.0166667 0.0333333 0.05 0 -0.0333333 0.05 0 -0.0166667 0.05 0 0 0.05 0 0.0166667 0.05 0 0.0333333 0.05 0.0166667 -0.0333333 0.05 0.0166667 -0.0166667 0.05 0.0166667 0 0.05 0.0166667 0.0166667 0.05 0.0166667 0.0333333 0.05 0.0333333 -0.0333333 0.05 0.0333333 -0.0166667 0.05 0.0333333 1.77636e-18 0.05 0.0333333 0.0166667 0.05 0.0333333 0.0333333 0.05 -0.0333333 -0.05 -0.0333333 -0.0333333 -0.05 -0.0166667 -0.0333333 -0.05 0 -0.0333333 -0.05 0.0166667 -0.0333333 -0.05 0.0333333 -0.0166667 -0.05 -0.0333333 -0.0166667 -0.05 -0.0166667 -0.0166667 -0.05 0 -0.0166667 -0.05 0.0166667 -0.0166667 -0.05 0.0333333 0 -0.05 -0.0333333 0 -0.05 -0.0166667 0 -0.05 0 0 -0.05 0.0166667 0 -0.05 0.0333333 0.0166667 -0.05 -0.0333333 0.0166667 -0.05 -0.0166667 0.0166667 -0.05 0 0.0166667 -0.05 0.0166667 0.0166667 -0.05 0.0333333 0.0333333 -0.05 -0.0333333 0.0333333 -0.05 -0.0166667 0.0333333 -0.05 1.77636e-18 0.0333333 -0.05 0.0166667 0.0333333 -0.05 0.0333333 0.05 -0.0333333 -0.0333333 0.05 -0.0333333 -0.0166667 0.05 -0.0333333 0 0.05 -0.0333333 0.0166667 0.05 -0.0333333 0.0333333 0.05 -0.0166667 -0.0333333 0.05 -0.0166667 -0.0166667 0.05 -0.0166667 0 0.05 -0.0166667 0.0166667 0.05 -0.0166667 0.0333333 0.05 0 -0.0333333 0.05 0 -0.0166667 0.05 0 0 0.05 0 0.0166667 0.05 0 0.0333333 0.05 0.0166667 -0.0333333 0.05 0.0166667 -0.0166667 0.05 0.0166667 0 0.05 0.0166667 0.0166667 0.05 0.0166667 0.0333333 0.05 0.0333333 -0.0333333 0.05 0.0333333 -0.0166667 0.05 0.0333333 1.77636e-18 0.05 0.0333333 0.0166667 0.05 0.0333333 0.0333333 0.0333333 0.05 -0.0333333 0.0333333 0.05 -0.0166667 0.0333333 0.05 0 0.0333333 0.05 0.0166667 0.0333333 0.05 0.0333333 0.0166667 0.05 -0.0333333 0.0166667 0.05 -0.0166667 0.0166667 0.05 0 0.0166667 0.05 0.0166667 0.0166667 0.05 0.0333333 0 0.05 -0.0333333 0 0.05 -0.0166667 0 0.05 0 0 0.05 0.0166667 0 0.05 0.0333333 -0.0166667 0.05 -0.0333333 -0.0166667 0.05 -0.0166667 -0.0166667 0.05 0 -0.0166667 0.05 0.0166667 -0.0166667 0.05 0.0333333 -0.0333333 0.05 -0.0333333 -0.0333333 0.05 -0.0166667 -0.0333333 0.05 1.77636e-18 -0.0333333 0.05 0.0166667 -0.0333333 0.05 0.0333333 -0.05 0.0333333 -0.0333333 -0.05 0.0333333 -0.0166667 -0.05 0.0333333 0 -0.05 0.0333333 0.0166667 -0.05 0.0333333 0.0333333 -0.05 0.0166667 -0.0333333 -0.05 0.0166667 -0.0166667 -0.05 0.0166667 0 -0.05 0.0166667 0.0166667 -0.05 0.0166667 0.0333333 -0.05 0 -0.0333333 -0.05 0 -0.0166667 -0.05 0 0 -0.05 0 0.0166667 -0.05 0 0.0333333 -0.05 -0.0166667 -0.0333333 -0.05 -0.0166667 -0.0166667 -0.05 -0.0166667 0 -0.05 -0.0166667 0.0166667 -0.05 -0.0166667 0.0333333 -0.05 -0.0333333 -0.0333333 -0.05 -0.0333333 -0.0166667 -0.05 -0.0333333 1.77636e-18 -0.05 -0.0333333 0.0166667 -0.05 -0.0333333 0.0333333 -0.0333333 0.0333333 -0.0333333 -0.0333333 0.0333333 -0.0166667 -0.0333333 0.0333333 4.44089e-19 -0.0333333 0.0333333 0.0166667 -0.0333333 0.0333333 0.0333333 -0.0333333 0.0166667 -0.0333333 -0.0333333 0.0166667 -0.0166667 -0.0333333 0.0166667 -4.44089e-18 -0.0333333 0.0166667 0.0166667 -0.0333333 0.0166667 0.0333333 -0.0333333 -6.66134e-18 -0.0333333 -0.0333333 -9.76996e-18 -0.0166667 -0.0333333 -1.77636e-18 -1.77636e-18 -0.0333333 -1.77636e-18 0.0166667 -0.0333333 3.55271e-18 0.0333333 -0.0333333 -0.0166667 -0.0333333 -0.0333333 -0.0166667 -0.0166667 -0.0333333 -0.0166667 1.77636e-18 -0.0333333 -0.0166667 0.0166667 -0.0333333 -0.0166667 0.0333333 -0.0333333 -0.0333333 -0.0333333 -0.0333333 -0.0333333 -0.0166667 -0.0333333 -0.0333333 0 -0.0333333 -0.0333333 0.0166667 -0.0333333 -0.0333333 0.0333333 -0.0166667 0.0333333 -0.0333333 -0.0166667 0.0333333 -0.0166667 -0.0166667 0.0333333 2.66454e-18 -0.0166667 0.0333333 0.0166667 -0.0166667 0.0333333 0.0333333 -0.0166667 0.0166667 -0.0333333 -0.0166667 0.0166667 -0.0166667 -0.0166667 0.0166667 -1.77636e-18 -0.0166667 0.0166667 0.0166667 -0.0166667 0.0166667 0.0333333 -0.0166667 -1.06581e-17 -0.0333333 -0.0166667 -1.15463e-17 -0.0166667 -0.0166667 -3.55271e-18 0 -0.0166667 -8.88178e-18 0.0166667 -0.0166667 -1.77636e-18 0.0333333 -0.0166667 -0.0166667 -0.0333333 -0.0166667 -0.0166667 -0.0166667 -0.0166667 -0.0166667 3.55271e-18 -0.0166667 -0.0166667 0.0166667 -0.0166667 -0.0166667 0.0333333 -0.0166667 -0.0333333 -0.0333333 -0.0166667 -0.0333333 -0.0166667 -0.0166667 -0.0333333 0 -0.0166667 -0.0333333 0.0166667 -0.0166667 -0.0333333 0.0333333 3.44169e-18 0.0333333 -0.0333333 1.02141e-17 0.0333333 -0.0166667 2.66454e-18 0.0333333 -8.88178e-19 6.21725e-18 0.0333333 0.0166667 1.33227e-18 0.0333333 0.0333333 7.99361e-18 0.0166667 -0.0333333 8.43769e-18 0.0166667 -0.0166667 8.88178e-19 0.0166667 8.88178e-19 7.99361e-18 0.0166667 0.0166667 3.55271e-18 0.0166667 0.0333333 3.55271e-18 -1.77636e-18 -0.0333333 9.76996e-18 -9.76996e-18 -0.0166667 0 -8.88178e-19 -8.88178e-19 8.88178e-18 -8.88178e-18 0.0166667 1.77636e-18 -1.77636e-18 0.0333333 1.02141e-17 -0.0166667 -0.0333333 1.24345e-17 -0.0166667 -0.0166667 3.55271e-18 -0.0166667 -1.77636e-18 8.88178e-18 -0.0166667 0.0166667 3.55271e-18 -0.0166667 0.0333333 5.77316e-18 -0.0333333 -0.0333333 4.44089e-18 -0.0333333 -0.0166667 1.77636e-18 -0.0333333 1.77636e-18 5.32907e-18 -0.0333333 0.0166667 0 -0.0333333 0.0333333 0.0166667 0.0333333 -0.0333333 0.0166667 0.0333333 -0.0166667 0.0166667 0.0333333 -2.66454e-18 0.0166667 0.0333333 0.0166667 0.0166667 0.0333333 0.0333333 0.0166667 0.0166667 -0.0333333 0.0166667 0.0166667 -0.0166667 0.0166667 0.0166667 3.10862e-18 0.0166667 0.0166667 0.0166667 0.0166667 0.0166667 0.0333333 0.0166667 -1.24345e-17 -0.0333333 0.0166667 -1.37668e-17 -0.0166667 0.0166667 -3.55271e-18 -1.77636e-18 0.0166667 -6.21725e-18 0.0166667 0.0166667 -8.88178e-19 0.0333333 0.0166667 -0.0166667 -0.0333333 0.0166667 -0.0166667 -0.0166667 0.0166667 -0.0166667 2.66454e-18 0.0166667 -0.0166667 0.0166667 0.0166667 -0.0166667 0.0333333 0.0166667 -0.0333333 -0.0333333 0.0166667 -0.0333333 -0.0166667 0.0166667 -0.0333333 0 0.0166667 -0.0333333 0.0166667 0.0166667 -0.0333333 0.0333333 0.0333333 0.0333333 -0.0333333 0.0333333 0.0333333 -0.0166667 0.0333333 0.0333333 3.33067e-19 0.0333333 0.0333333 0.0166667 0.0333333 0.0333333 0.0333333 0.0333333 0.0166667 -0.0333333 0.0333333 0.0166667 -0.0166667 0.0333333 0.0166667 1.11022e-18 0.0333333 0.0166667 0.0166667 0.0333333 0.0166667 0.0333333 0.0333333 -4.44089e-18 -0.0333333 0.0333333 -4.21885e-18 -0.0166667 0.0333333 8.88178e-19 8.88178e-19 0.0333333 -1.33227e-18 0.0166667 0.0333333 3.55271e-18 0.0333333 0.0333333 -0.0166667 -0.0333333 0.0333333 -0.0166667 -0.0166667 0.0333333 -0.0166667 2.22045e-18 0.0333333 -0.0166667 0.0166667 0.0333333 -0.0166667 0.0333333 0.0333333 -0.0333333 -0.0333333 0.0333333 -0.0333333 -0.0166667 0.0333333 -0.0333333 2.22045e-18 0.0333333 -0.0333333 0.0166667 0.0333333 -0.0333333 0.0333333 </DataArray>
</Points>
<Cells>
<DataArray type="Int32" Name="connectivity" format="ascii">
68 22 3 23 218 188 63 193 218 188 63 193 219 189 64 194 219 189 64 194 220 190 65 195 220 190 65 195 221 191 66 196 221 191 66 196 222 192 67 197 222 192 67 197 97 42 7 43 69 68 23 24 223 218 193 198 223 218 193 198 224 219 194 199 224 219 194 199 225 220 195 200 225 220 195 200 226 221 196 201 226 221 196 201 227 222 197 202 227 222 197 202 96 97 43 44 70 69 24 25 228 223 198 203 228 223 198 203 229 224 199 204 229 224 199 204 230 225 200 205 230 225 200 205 231 226 201 206 231 226 201 206 232 227 202 207 232 227 202 207 95 96 44 45 71 70 25 26 233 228 203 208 233 228 203 208 234 229 204 209 234 229 204 209 235 230 205 210 235 230 205 210 236 231 206 211 236 231 206 211 237 232 207 212 237 232 207 212 94 95 45 46 72 71 26 27 238 233 208 213 238 233 208 213 239 234 209 214 239 234 209 214 240 235 210 215 240 235 210 215 241 236 211 216 241 236 211 216 242 237 212 217 242 237 212 217 93 94 46 47 8 72 27 0 118 238 213 48 118 238 213 48 119 239 214 49 119 239 214 49 120 240 215 50 120 240 215 50 121 241 216 51 121 241 216 51 122 242 217 52 122 242 217 52 28 93 47 4 73 21 22 68 243 183 188 218 243 183 188 218 244 184 189 219 244 184 189 219 245 185 190 220 245 185 190 220 246 186 191 221 246 186 191 221 247 187 192 222 247 187 192 222 102 41 42 97 74 73 68 69 248 243 218 223 248 243 218 223 249 244 219 224 249 244 219 224 250 245 220 225 250 245 220 225 251 246 221 226 251 246 221 226 252 247 222 227 252 247 222 227 101 102 97 96 75 74 69 70 253 248 223 228 253 248 223 228 254 249 224 229 254 249 224 229 255 250 225 230 255 250 225 230 256 251 226 231 256 251 226 231 257 252 227 232 257 252 227 232 100 101 96 95 76 75 70 71 258 253 228 233 258 253 228 233 259 254 229 234 259 254 229 234 260 255 230 235 260 255 230 235 261 256 231 236 261 256 231 236 262 257 232 237 262 257 232 237 99 100 95 94 77 76 71 72 263 258 233 238 263 258 233 238 264 259 234 239 264 259 234 239 265 260 235 240 265 260 235 240 266 261 236 241 266 261 236 241 267 262 237 242 267 262 237 242 98 99 94 93 9 77 72 8 123 263 238 118 123 263 238 118 124 264 239 119 124 264 239 119 125 265 240 120 125 265 240 120 126 266 241 121 126 266 241 121 127 267 242 122 127 267 242 122 29 98 93 28 78 20 21 73 268 178 183 243 268 178 183 243 269 179 184 244 269 179 184 244 270 180 185 245 270 180 185 245 271 181 186 246 271 181 186 246 272 182 187 247 272 182 187 247 107 40 41 102 79 78 73 74 273 268 243 248 273 268 243 248 274 269 244 249 274 269 244 249 275 270 245 250 275 270 245 250 276 271 246 251 276 271 246 251 277 272 247 252 277 272 247 252 106 107 102 101 80 79 74 75 278 273 248 253 278 273 248 253 279 274 249 254 279 274 249 254 280 275 250 255 280 275 250 255 281 276 251 256 281 276 251 256 282 277 252 257 282 277 252 257 105 106 101 100 81 80 75 76 283 278 253 258 283 278 253 258 284 279 254 259 284 279 254 259 285 280 255 260 285 280 255 260 286 281 256 261 286 281 256 261 287 282 257 262 287 282 257 262 104 105 100 99 82 81 76 77 288 283 258 263 288 283 258 263 289 284 259 264 289 284 259 264 290 285 260 265 290 285 260 265 291 286 261 266 291 286 261 266 292 287 262 267 292 287 262 267 103 104 99 98 10 82 77 9 128 288 263 123 128 288 263 123 129 289 264 124 129 289 264 124 130 290 265 125 130 290 265 125 131 291 266 126 131 291 266 126 132 292 267 127 132 292 267 127 30 103 98 29 83 19 20 78 293 173 178 268 293 173 178 268 294 174 179 269 294 174 179 269 295 175 180 270 295 175 180 270 296 176 181 271 296 176 181 271 297 177 182 272 297 177 182 272 112 39 40 107 84 83 78 79 298 293 268 273 298 293 268 273 299 294 269 274 299 294 269 274 300 295 270 275 300 295 270 275 301 296 271 276 301 296 271 276 302 297 272 277 302 297 272 277 111 112 107 106 85 84 79 80 303 298 273 278 303 298 273 278 304 299 274 279 304 299 274 279 305 300 275 280 305 300 275 280 306 301 276 281 306 301 276 281 307 302 277 282 307 302 277 282 110 111 106 105 86 85 80 81 308 303 278 283 308 303 278 283 309 304 279 284 309 304 279 284 310 305 280 285 310 305 280 285 311 306 281 286 311 306 281 286 312 307 282 287 312 307 282 287 109 110 105 104 87 86 81 82 313 308 283 288 313 308 283 288 314 309 284 289 314 309 284 289 315 310 285 290 315 310 285 290 316 311 286 291 316 311 286 291 317 312 287 292 317 312 287 292 108 109 104 103 11 87 82 10 133 313 288 128 133 313 288 128 134 314 289 129 134 314 289 129 135 315 290 130 135 315 290 130 136 316 291 131 136 316 291 131 137 317 292 132 137 317 292 132 31 108 103 30 88 18 19 83 318 168 173 293 318 168 173 293 319 169 174 294 319 169 174 294 320 170 175 295 320 170 175 295 321 171 176 296 321 171 176 296 322 172 177 297 322 172 177 297 117 38 39 112 89 88 83 84 323 318 293 298 323 318 293 298 324 319 294 299 324 319 294 299 325 320 295 300 325 320 295 300 326 321 296 301 326 321 296 301 327 322 297 302 327 322 297 302 116 117 112 111 90 89 84 85 328 323 298 303 328 323 298 303 329 324 299 304 329 324 299 304 330 325 300 305 330 325 300 305 331 326 301 306 331 326 301 306 332 327 302 307 332 327 302 307 115 116 111 110 91 90 85 86 333 328 303 308 333 328 303 308 334 329 304 309 334 329 304 309 335 330 305 310 335 330 305 310 336 331 306 311 336 331 306 311 337 332 307 312 337 332 307 312 114 115 110 109 92 91 86 87 338 333 308 313 338 333 308 313 339 334 309 314 339 334 309 314 340 335 310 315 340 335 310 315 341 336 311 316 341 336 311 316 342 337 312 317 342 337 312 317 113 114 109 108 12 92 87 11 138 338 313 133 138 338 313 133 139 339 314 134 139 339 314 134 140 340 315 135 140 340 315 135 141 341 316 136 141 341 316 136 142 342 317 137 142 342 317 137 32 113 108 31 17 2 18 88 163 58 168 318 163 58 168 318 164 59 169 319 164 59 169 319 165 60 170 320 165 60 170 320 166 61 171 321 166 61 171 321 167 62 172 322 167 62 172 322 37 6 38 117 16 17 88 89 158 163 318 323 158 163 318 323 159 164 319 324 159 164 319 324 160 165 320 325 160 165 320 325 161 166 321 326 161 166 321 326 162 167 322 327 162 167 322 327 36 37 117 116 15 16 89 90 153 158 323 328 153 158 323 328 154 159 324 329 154 159 324 329 155 160 325 330 155 160 325 330 156 161 326 331 156 161 326 331 157 162 327 332 157 162 327 332 35 36 116 115 14 15 90 91 148 153 328 333 148 153 328 333 149 154 329 334 149 154 329 334 150 155 330 335 150 155 330 335 151 156 331 336 151 156 331 336 152 157 332 337 152 157 332 337 34 35 115 114 13 14 91 92 143 148 333 338 143 148 333 338 144 149 334 339 144 149 334 339 145 150 335 340 145 150 335 340 146 151 336 341 146 151 336 341 147 152 337 342 147 152 337 342 33 34 114 113 1 13 92 12 53 143 338 138 53 143 338 138 54 144 339 139 54 144 339 139 55 145 340 140 55 145 340 140 56 146 341 141 56 146 341 141 57 147 342 142 57 147 342 142 5 33 113 32 </DataArray>
<DataArray type="Int32" Name="offsets" format="ascii">
8 16 24 32 40 48 56 64 72 80 88 96 104 112 120 128 136 144 152 160 168 176 184 192 200 208 216 224 232 240 248 256 264 272 280 288 296 304 312 320 328 336 344 352 360 368 376 384 392 400 408 416 424 432 440 448 456 464 472 480 488 496 504 512 520 528 536 544 552 560 568 576 584 592 600 608 616 624 632 640 648 656 664 672 680 688 696 704 712 720 728 736 744 752 760 768 776 784 792 800 808 816 824 832 840 848 856 864 872 880 888 896 904 912 920 928 936 944 952 960 968 976 984 992 1000 1008 1016 1024 1032 1040 1048 1056 1064 1072 1080 1088 1096 1104 1112 1120 1128 1136 1144 1152 1160 1168 1176 1184 1192 1200 1208 1216 1224 1232 1240 1248 1256 1264 1272 1280 1288 1296 1304 1312 1320 1328 1336 1344 1352 1360 1368 1376 1384 1392 1400 1408 1416 1424 1432 1440 1448 1456 1464 1472 1480 1488 1496 1504 1512 1520 1528 1536 1544 1552 1560 1568 1576 1584 1592 1600 1608 1616 1624 1632 1640 1648 1656 1664 1672 1680 1688 1696 1704 1712 1720 1728 </DataArray>
<DataArray type="UInt8" Name="types" format="ascii">
12 12 12 12 12 12 12 12 12 12 12 12 12 12 12 12 12 12 12 12 12 12 12 12 12 12 12 12 12 12 12 12 12 12 12 12 12 12 12 12 12 12 12 12 12 12 12 12 12 12 12 12 12 12 12 12 12 12 12 12 12 12 12 12 12 12 12 12 12 12 12 12 12 12 12 12 12 12 12 12 12 12 12 12 12 12 12 12 12 12 12 12 12 12 12 12 12 12 12 12 12 12 12 12 12 12 12 12 12 12 12 12 12 12 12 12 12 12 12 12 12 12 12 12 12 12 12 12 12 12 12 12 12 12 12 12 12 12 12 12 12 12 12 12 12 12 12 12 12 12 12 12 12 12 12 12 12 12 12 12 12 12 12 12 12 12 12 12 12 12 12 12 12 12 12 12 12 12 12 12 12 12 12 12 12 12 12 12 12 12 12 12 12 12 12 12 12 12 12 12 12 12 12 12 12 12 12 12 12 12 12 12 12 12 12 12 </DataArray>
</Cells>
<CellData Scalars="scalars">
<DataArray type="Float32" Name="number_density" format="ascii">
7.128e+15 4.32e+15 7.992e+15 7.56e+15 6.696e+15 8.856e+15 3.888e+15 1.0368e+16 6.696e+15 5.4e+15 9.936e+15 7.776e+15 6.696e+15 7.56e+15 5.4e+15 4.752e+15 6.48e+15 9.288e+15 5.832e+15 7.992e+15 6.696e+15 6.264e+15 8.424e+15 9.072e+15 7.344e+15 5.616e+15 9.504e+15 1.08e+16 7.56e+15 7.992e+15 9.288e+15 6.48e+15 6.696e+15 5.616e+15 5.832e+15 6.264e+15 6.264e+15 6.696e+15 8.856e+15 9.72e+15 9.936e+15 7.344e+15 4.104e+15 6.696e+15 1.0368e+16 1.7064e+16 1.4904e+16 1.2312e+16 5.184e+15 8.64e+15 1.296e+16 1.7928e+16 1.4256e+16 1.0368e+16 3.888e+15 9.936e+15 1.2096e+16 1.3176e+16 1.296e+16 8.208e+15 6.48e+15 7.992e+15 1.0152e+16 1.62e+16 8.64e+15 1.2528e+16 7.128e+15 8.64e+15 8.208e+15 7.992e+15 6.696e+15 7.992e+15 3.672e+15 7.992e+15 1.0152e+16 1.188e+16 1.1664e+16 1.1664e+16 4.104e+15 8.856e+15 1.3608e+16 2.7432e+16 2.1816e+16 1.3176e+16 3.24e+15 1.0368e+16 1.4256e+16 4.1904e+16 4.536e+16 1.3824e+16 3.24e+15 8.856e+15 1.4472e+16 2.7648e+16 2.376e+16 1.0368e+16 6.48e+15 9.72e+15 1.2312e+16 1.2744e+16 1.5552e+16 9.072e+15 3.24e+15 6.048e+15 6.912e+15 8.208e+15 7.992e+15 8.208e+15 5.4e+15 8.208e+15 6.696e+15 1.0152e+16 9.288e+15 1.1448e+16 6.264e+15 8.64e+15 1.3176e+16 2.5488e+16 2.3544e+16 1.404e+16 3.456e+15 7.56e+15 1.4688e+16 4.4712e+16 3.3912e+16 1.512e+16 4.968e+15 1.1016e+16 1.2096e+16 2.4192e+16 2.052e+16 1.1448e+16 4.752e+15 9.288e+15 8.64e+15 1.08e+16 1.188e+16 9.504e+15 5.832e+15 5.832e+15 6.48e+15 6.912e+15 7.992e+15 8.424e+15 6.264e+15 8.208e+15 9.72e+15 1.3608e+16 1.188e+16 1.0368e+16 7.56e+15 7.776e+15 1.3608e+16 1.404e+16 1.5984e+16 8.856e+15 4.968e+15 1.0368e+16 1.2744e+16 2.0952e+16 1.944e+16 1.08e+16 5.832e+15 1.0584e+16 1.0152e+16 1.2528e+16 1.404e+16 1.1016e+16 6.264e+15 9.504e+15 9.72e+15 8.424e+15 9.288e+15 7.56e+15 5.4e+15 6.048e+15 6.264e+15 7.128e+15 8.64e+15 1.0152e+16 8.424e+15 7.128e+15 8.208e+15 9.072e+15 8.424e+15 1.0152e+16 5.184e+15 7.776e+15 7.776e+15 9.504e+15 1.1232e+16 7.56e+15 5.4e+15 8.424e+15 8.208e+15 8.424e+15 8.424e+15 9.504e+15 4.752e+15 4.968e+15 5.616e+15 5.4e+15 7.56e+15 7.56e+15 6.48e+15 6.912e+15 6.264e+15 5.184e+15 6.912e+15 9.504e+15 8.424e+15 6.048e+15 4.752e+15 7.128e+15 8.424e+15 8.856e+15 </DataArray>
<DataArray type="Float32" Name="potential" format="ascii">
0 0 0 0 0 0 0 0 0 0 0 0 0 0 0 0 0 0 0 0 0 0 0 0 0 0 0 0 0 0 0 0 0 0 0 0 0 0 0 0 0 0 0 0 0 0 0 0 0 0 0 0 0 0 0 0 0 0 0 0 0 0 0 0 0 0 0 0 0 0 0 0 0 0 0 0 0 0 0 0 0 0 0 0 0 0 0 0 0 0 0 0 0 0 0 0 0 0 0 0 0 0 0 0 0 0 0 0 0 0 0 0 0 0 0 0 0 0 0 0 0 0 0 0 0 0 0 0 0 0 0 0 0 0 0 0 0 0 0 0 0 0 0 0 0 0 0 0 0 0 0 0 0 0 0 0 0 0 0 0 0 0 0 0 0 0 0 0 0 0 0 0 0 0 0 0 0 0 0 0 0 0 0 0 0 0 0 0 0 0 0 0 0 0 0 0 0 0 0 0 0 0 0 0 0 0 0 0 0 0 0 0 0 0 0 0 </DataArray>
<DataArray type="Float32" Name="temperature" format="ascii">
240.932 317.705 296.567 288.882 301.06 290.102 131.118 272.776 295.889 341.247 380.131 314.105 197.516 287.521 391.699 610.845 332.854 238.498 240.358 286.19 343.411 318.307 400.037 296.091 213.456 235.243 299.895 287.671 294.687 236.041 220.47 342.942 234.353 294.843 245.194 246.667 203.589 248.989 368.419 392.883 253.554 317.949 218.375 332.545 403.014 521.381 418.958 326.948 279.309 374.493 532.019 535.333 524.018 336.037 338.204 289.449 372.295 528.901 463.437 385.509 376.759 344.239 393.078 442.744 353.844 274.362 223.323 275.999 273.335 327.697 197.127 290.588 271.475 261.344 305.501 365.398 353.245 350.38 195.304 308.479 525.757 726.752 642.255 353.454 262.471 399.259 564.327 949.772 924.794 430.818 321.385 381.04 541.951 797.039 753.011 353.942 428.073 299.841 415.374 493.275 397.076 289.17 210.815 262.039 255.9 352.083 331.355 283.483 200.893 226.373 317.056 439.478 394.04 279.997 273.543 306.549 505.5 721.195 624.365 342.733 312.81 248.004 551.012 947.71 756.271 394.174 350.455 402.037 544.715 778.851 662.285 336.673 200.504 342.51 428.177 381.727 371.479 260.055 341.973 279.769 401.629 307.511 365.862 271.161 264.268 288.155 386.499 377.593 276.536 237.06 263.39 345.176 392.369 353.87 406.829 265.653 309.306 282.359 393.584 596.307 517.312 318.853 238.292 365.537 482.946 637.707 379.065 375.803 319.075 288.615 250.748 362.525 355.974 229.249 236.104 264.112 328.854 336.841 263.742 239.524 300.041 252.079 246.417 368.971 260.182 326.128 288.724 288.458 284.778 295.596 356.999 321.782 228.299 316.717 328.772 410.01 312.203 294.427 254.544 247.302 266.443 298.023 289.124 261.545 233.573 254.807 307.977 273.94 269.817 287.592 247.782 245.513 232.766 219.813 253.916 211.86 </DataArray>
<DataArray type="Float32" Name="velocity" format="ascii">
160.388 194.463 345.303 240.368 130.336 54.1468 289.911 364.959 468.213 419.134 150.871 143.966 281.358 479.838 647.799 399.588 269.279 146.763 297.457 426.413 543.574 466.021 313.494 230.954 213.238 313.027 371.863 371.643 233.303 199.375 114.257 146.129 282.915 224.292 187.263 160.504 245.566 374.338 503.549 402.844 268.218 146.729 359.372 556.406 655.389 560.779 396.202 188.141 504.822 771.615 875.225 754.14 449.841 250.081 544.428 705.529 816.628 732.87 411.165 352.651 308.347 532.046 620.778 508.687 419.22 258.665 179.509 345.666 357.993 354.76 215.46 124.073 361.897 568.655 624.199 533.569 187.249 99.5802 441.675 824.419 885.144 681.045 313.58 145.997 675.556 1036.12 1220.9 905.824 510.489 206.189 556.776 912.792 1134.6 915.048 502.216 249.467 417.622 669.329 804.189 708.646 495.896 305.548 288.952 423.448 525.021 328.378 195.746 174.217 312.638 500.291 538.986 419.817 192.407 25.1337 437.42 790.358 831.649 683.178 287.322 77.3772 563.098 1045.25 1165.58 910.553 334.373 147.75 612.652 971.446 1156.59 936.762 511.189 324.726 450.048 748.889 902.247 806.301 468.921 324.869 305.163 412.015 575.502 514.123 325.436 117.94 252.969 358.366 365.814 312.826 85.911 76.0722 343.365 521.24 718.837 485.379 259.569 111.456 434.009 720.01 937.601 675.656 288.999 232.807 477.208 751.778 908.192 832.868 473.048 250.166 287.268 578.172 703.639 645.538 403.172 288.609 263.351 360.539 433.408 344.224 329.623 168.881 123.124 180.842 242.283 219.214 55.354 132.103 202.614 370.045 430.569 287.842 191.448 99.825 266.635 459.085 546.721 432.492 284.673 133.977 348.496 516.756 607.909 422.85 283.98 143.454 175.584 420.509 464.14 420.621 345.987 110.099 100.662 212.477 298.862 305.803 156.849 144.91 </DataArray>
<DataArray type="Float32" Name="E_field" format="ascii">
0 0 0 0 0 0 0 0 0 0 0 0 0 0 0 0 0 0 0 0 0 0 0 0 0 0 0 0 0 0 0 0 0 0 0 0 0 0 0 0 0 0 0 0 0 0 0 0 0 0 0 0 0 0 0 0 0 0 0 0 0 0 0 0 0 0 0 0 0 0 0 0 0 0 0 0 0 0 0 0 0 0 0 0 0 0 0 0 0 0 0 0 0 0 0 0 0 0 0 0 0 0 0 0 0 0 0 0 0 0 0 0 0 0 0 0 0 0 0 0 0 0 0 0 0 0 0 0 0 0 0 0 0 0 0 0 0 0 0 0 0 0 0 0 0 0 0 0 0 0 0 0 0 0 0 0 0 0 0 0 0 0 0 0 0 0 0 0 0 0 0 0 0 0 0 0 0 0 0 0 0 0 0 0 0 0 0 0 0 0 0 0 0 0 0 0 0 0 0 0 0 0 0 0 0 0 0 0 0 0 0 0 0 0 0 0 </DataArray>
</CellData>
<PointData Scalars="number_density">
<DataArray type="Float32" Name="number_density" format="ascii">
9.288e+15 8.424e+15 8.424e+15 7.128e+15 6.264e+15 8.856e+15 1.0152e+16 8.856e+15 8.208e+15 5.184e+15 4.536e+15 5.616e+15 6.912e+15 7.452e+15 5.616e+15 5.076e+15 5.292e+15 6.804e+15 7.344e+15 5.832e+15 4.536e+15 4.968e+15 6.696e+15 5.508e+15 5.292e+15 6.264e+15 6.588e+15 8.316e+15 7.128e+15 8.1e+15 8.316e+15 9.288e+15 9.504e+15 9.18e+15 8.532e+15 8.532e+15 8.532e+15 8.856e+15 1.026e+16 1.0908e+16 1.1556e+16 9.504e+15 8.1e+15 8.316e+15 8.532e+15 9.18e+15 8.532e+15 7.128e+15 7.884e+15 6.588e+15 6.156e+15 5.724e+15 6.048e+15 7.236e+15 5.4e+15 5.94e+15 7.776e+15 8.64e+15 7.776e+15 7.668e+15 8.64e+15 8.748e+15 9.288e+15 5.724e+15 6.156e+15 7.776e+15 7.128e+15 7.776e+15 5.346e+15 4.968e+15 5.4e+15 5.886e+15 7.56e+15 4.536e+15 4.158e+15 3.888e+15 5.022e+15 5.832e+15 4.86e+15 4.266e+15 3.726e+15 4.86e+15 5.076e+15 6.372e+15 5.562e+15 4.806e+15 5.454e+15 5.562e+15 6.858e+15 5.778e+15 5.238e+15 5.832e+15 6.642e+15 8.694e+15 9.45e+15 9.234e+15 9.936e+15 9.072e+15 9.45e+15 1.0044e+16 1.0692e+16 1.242e+16 1.1124e+16 8.802e+15 1.0098e+16 1.269e+16 1.404e+16 1.2582e+16 8.91e+15 9.882e+15 1.2096e+16 1.2204e+16 1.1178e+16 9.018e+15 8.91e+15 9.72e+15 9.18e+15 9.234e+15 7.884e+15 7.506e+15 7.128e+15 6.534e+15 6.696e+15 6.264e+15 7.452e+15 7.83e+15 7.722e+15 7.722e+15 5.238e+15 6.318e+15 7.128e+15 7.776e+15 8.154e+15 5.778e+15 6.156e+15 6.696e+15 7.668e+15 8.802e+15 6.48e+15 5.778e+15 6.318e+15 7.83e+15 9.018e+15 6.966e+15 5.994e+15 5.832e+15 6.912e+15 8.424e+15 5.778e+15 5.94e+15 5.616e+15 6.264e+15 7.884e+15 5.886e+15 6.804e+15 6.912e+15 7.452e+15 8.262e+15 6.696e+15 8.046e+15 8.478e+15 9.396e+15 9.18e+15 7.128e+15 7.722e+15 8.64e+15 9.558e+15 9.342e+15 7.506e+15 8.316e+15 1.0152e+16 1.0746e+16 1.0206e+16 7.02e+15 8.208e+15 1.0044e+16 1.1232e+16 1.0746e+16 6.318e+15 8.262e+15 9.72e+15 1.0746e+16 1.1016e+16 6.156e+15 8.424e+15 1.0152e+16 1.08e+16 1.0152e+16 6.102e+15 6.966e+15 8.532e+15 8.478e+15 8.208e+15 6.426e+15 7.344e+15 6.912e+15 7.398e+15 8.316e+15 7.128e+15 7.506e+15 5.562e+15 6.642e+15 8.37e+15 7.02e+15 6.912e+15 5.778e+15 6.48e+15 8.316e+15 6.696e+15 7.452e+15 8.316e+15 8.262e+15 8.262e+15 7.182e+15 7.074e+15 8.154e+15 7.452e+15 6.912e+15 6.183e+15 7.749e+15 9.207e+15 1.0152e+16 9.72e+15 6.642e+15 8.586e+15 1.0071e+16 1.134e+16 1.0665e+16 6.966e+15 8.91e+15 9.909e+15 1.053e+16 9.882e+15 6.885e+15 8.748e+15 1.0611e+16 1.0503e+16 9.423e+15 7.371e+15 7.911e+15 9.396e+15 8.667e+15 7.938e+15 6.048e+15 9.153e+15 1.3635e+16 1.5552e+16 1.2852e+16 6.399e+15 1.0719e+16 1.944e+16 2.5083e+16 1.8252e+16 6.669e+15 1.1448e+16 1.9305e+16 2.4624e+16 1.7388e+16 7.074e+15 1.0692e+16 1.485e+16 1.6335e+16 1.2636e+16 6.966e+15 8.748e+15 1.0341e+16 1.0503e+16 9.585e+15 6.642e+15 9.666e+15 1.4823e+16 1.7658e+16 1.458e+16 6.561e+15 1.1394e+16 2.4408e+16 3.3021e+16 2.2599e+16 6.588e+15 1.1664e+16 2.4246e+16 3.2751e+16 2.1789e+16 7.29e+15 1.08e+16 1.5363e+16 1.8387e+16 1.4013e+16 6.399e+15 8.154e+15 9.126e+15 1.026e+16 9.828e+15 7.29e+15 9.504e+15 1.3311e+16 1.5498e+16 1.3176e+16 7.074e+15 1.107e+16 1.9926e+16 2.4759e+16 1.7712e+16 7.344e+15 1.1151e+16 1.9008e+16 2.3787e+16 1.7037e+16 7.776e+15 1.0125e+16 1.2069e+16 1.3959e+16 1.1907e+16 6.615e+15 7.722e+15 8.046e+15 8.883e+15 9.18e+15 7.29e+15 8.775e+15 1.0692e+16 1.1718e+16 1.0557e+16 7.182e+15 9.585e+15 1.1907e+16 1.35e+16 1.1475e+16 6.912e+15 8.883e+15 1.0503e+16 1.2096e+16 1.1043e+16 6.912e+15 7.965e+15 7.911e+15 8.667e+15 9.18e+15 6.885e+15 6.939e+15 6.858e+15 7.641e+15 8.667e+15 </DataArray>
<DataArray type="Float32" Name="potential" format="ascii">
0 0 0 0 0 0 0 0 0 0 0 0 0 0 0 0 0 0 0 0 0 0 0 0 0 0 0 0 0 0 0 0 0 0 0 0 0 0 0 0 0 0 0 0 0 0 0 0 0 0 0 0 0 0 0 0 0 0 0 0 0 0 0 0 0 0 0 0 0 0 0 0 0 0 0 0 0 0 0 0 0 0 0 0 0 0 0 0 0 0 0 0 0 0 0 0 0 0 0 0 0 0 0 0 0 0 0 0 0 0 0 0 0 0 0 0 0 0 0 0 0 0 0 0 0 0 0 0 0 0 0 0 0 0 0 0 0 0 0 0 0 0 0 0 0 0 0 0 0 0 0 0 0 0 0 0 0 0 0 0 0 0 0 0 0 0 0 0 0 0 0 0 0 0 0 0 0 0 0 0 0 0 0 0 0 0 0 0 0 0 0 0 0 0 0 0 0 0 0 0 0 0 0 0 0 0 0 0 0 0 0 0 0 0 0 0 0 0 0 0 0 0 0 0 0 0 0 0 0 0 0 0 0 0 0 0 0 0 0 0 0 0 0 0 0 0 0 0 0 0 0 0 0 0 0 0 0 0 0 0 0 0 0 0 0 0 0 0 0 0 0 0 0 0 0 0 0 0 0 0 0 0 0 0 0 0 0 0 0 0 0 0 0 0 0 0 0 0 0 0 0 0 0 0 0 0 0 0 0 0 0 0 0 0 0 0 0 0 0 0 0 0 0 0 0 0 0 0 0 0 0 0 0 0 0 0 0 0 0 0 0 0 0 </DataArray>
<DataArray type="Float32" Name="temperature" format="ascii">