<VTKFile type="UnstructuredGrid" version="0.1" byte_order="LittleEndian">
<UnstructuredGrid>
<Piece NumberOfPoints="343" NumberOfCells="216">
<Points>
<DataArray type="Float32" NumberOfComponents="3" format="ascii">
-0.05 -0.05 -0.05 0.05 -0.05 -0.05 0.05 0.05 -0.05 -0.05 0.05 -0.05 -0.05 -0.05 0.05 0.05 -0.05 0.05 0.05 0.05 0.05 -0.05 0.05 0.05 -0.0333333 -0.05 -0.05 -0.0166667 -0.05 -0.05 0 -0.05 -0.05 0.0166667 -0.05 -0.05 0.0333333 -0.05 -0.05 0.05 -0.0333333 -0.05 0.05 -0.0166667 -0.05 0.05 0 -0.05 0.05 0.0166667 -0.05 0.05 0.0333333 -0.05 0.0333333 0.05 -0.05 0.0166667 0.05 -0.05 0 0.05 -0.05 -0.0166667 0.05 -0.05 -0.0333333 0.05 -0.05 -0.05 0.0333333 -0.05 -0.05 0.0166667 -0.05 -0.05 0 -0.05 -0.05 -0.0166667 -0.05 -0.05 -0.0333333 -0.05 -0.0333333 -0.05 0.05 -0.0166667 -0.05 0.05 0 -0.05 0.05 0.0166667 -0.05 0.05 0.0333333 -0.05 0.05 0.05 -0.0333333 0.05 0.05 -0.0166667 0.05 0.05 0 0.05 0.05 0.0166667 0.05 0.05 0.0333333 0.05 0.0333333 0.05 0.05 0.0166667 0.05 0.05 0 0.05 0.05 -0.0166667 0.05 0.05 -0.0333333 0.05 0.05 -0.05 0.0333333 0.05 -0.05 0.0166667 0.05 -0.05 0 0.05 -0.05 -0.0166667 0.05 -0.05 -0.0333333 0.05 -0.05 -0.05 -0.0333333 -0.05 -0.05 -0.0166667 -0.05 -0.05 0 -0.05 -0.05 0.0166667 -0.05 -0.05 0.0333333 0.05 -0.05 -0.0333333 0.05 -0.05 -0.0166667 0.05 -0.05 0 0.05 -0.05 0.0166667 0.05 -0.05 0.0333333 0.05 0.05 -0.0333333 0.05 0.05 -0.0166667 0.05 0.05 0 0.05 0.05 0.0166667 0.05 0.05 0.0333333 -0.05 0.05 -0.0333333 -0.05 0.05 -0.0166667 -0.05 0.05 0 -0.05 0.05 0.0166667 -0.05 0.05 0.0333333 -0.0333333 0.0333333 -0.05 -0.0333333 0.0166667 -0.05 -0.0333333 -3.55271e-18 -0.05 -0.0333333 -0.0166667 -0.05 -0.0333333 -0.0333333 -0.05 -0.0166667 0.0333333 -0.05 -0.0166667 0.0166667 -0.05 -0.0166667 -7.10543e-18 -0.05 -0.0166667 -0.0166667 -0.05 -0.0166667 -0.0333333 -0.05 1.77636e-18 0.0333333 -0.05 5.32907e-18 0.0166667 -0.05 3.55271e-18 -1.77636e-18 -0.05 7.10543e-18 -0.0166667 -0.05 3.55271e-18 -0.0333333 -0.05 0.0166667 0.0333333 -0.05 0.0166667 0.0166667 -0.05 0.0166667 -7.10543e-18 -0.05 0.0166667 -0.0166667 -0.05 0.0166667 -0.0333333 -0.05 0.0333333 0.0333333 -0.05 0.0333333 0.0166667 -0.05 0.0333333 -1.77636e-18 -0.05 0.0333333 -0.0166667 -0.05 0.0333333 -0.0333333 -0.05 -0.0333333 -0.0333333 0.05 -0.0333333 -0.0166667 0.05 -0.0333333 0 0.05 -0.0333333 0.0166667 0.05 -0.0333333 0.0333333 0.05 -0.0166667 -0.0333333 0.05 -0.0166667 -0.0166667 0.05 -0.0166667 0 0.05 -0.0166667 0.0166667 0.05 -0.0166667 0.0333333 0.05 0 -0.0333333 0.05 0 -0.0166667 0.05 0 0 0.05 0 0.0166667 0.05 0 0.0333333 0.05 0.0166667 -0.0333333 0.05 0.0166667 -0.0166667 0.05 0.0166667 0 0.05 0.0166667 0.0166667 0.05 0.0166667 0.0333333 0.05 0.0333333 -0.0333333 0.05 0.0333333 -0.0166667 0.05 0.0333333 1.77636e-18 0.05 0.0333333 0.0166667 0.05 0.0333333 0.0333333 0.05 -0.0333333 -0.05 -0.0333333 -0.0333333 -0.05 -0.0166667 -0.0333333 -0.05 0 -0.0333333 -0.05 0.0166667 -0.0333333 -0.05 0.0333333 -0.0166667 -0.05 -0.0333333 -0.0166667 -0.05 -0.0166667 -0.0166667 -0.05 0 -0.0166667 -0.05 0.0166667 -0.0166667 -0.05 0.0333333 0 -0.05 -0.0333333 0 -0.05 -0.0166667 0 -0.05 0 0 -0.05 0.0166667 0 -0.05 0.0333333 0.0166667 -0.05 -0.0333333 0.0166667 -0.05 -0.0166667 0.0166667 -0.05 0 0.0166667 -0.05 0.0166667 0.0166667 -0.05 0.0333333 0.0333333 -0.05 -0.0333333 0.0333333 -0.05 -0.0166667 0.0333333 -0.05 1.77636e-18 0.0333333 -0.05 0.0166667 0.0333333 -0.05 0.0333333 0.05 -0.0333333 -0.0333333 0.05 -0.0333333 -0.0166667 0.05 -0.0333333 0 0.05 -0.0333333 0.0166667 0.05 -0.0333333 0.0333333 0.05 -0.0166667 -0.0333333 0.05 -0.0166667 -0.0166667 0.05 -0.0166667 0 0.05 -0.0166667 0.0166667 0.05 -0.0166667 0.0333333 0.05 0 -0.0333333 0.05 0 -0.0166667 0.05 0 0 0.05 0 0.0166667 0.05 0 0.0333333 0.05 0.0166667 -0.0333333 0.05 0.0166667 -0.0166667 0.05 0.0166667 0 0.05 0.0166667 0.0166667 0.05 0.0166667 0.0333333 0.05 0.0333333 -0.0333333 0.05 0.0333333 -0.0166667 0.05 0.0333333 1.77636e-18 0.05 0.0333333 0.0166667 0.05 0.0333333 0.0333333 0.0333333 0.05 -0.0333333 0.0333333 0.05 -0.0166667 0.0333333 0.05 0 0.0333333 0.05 0.0166667 0.0333333 0.05 0.0333333 0.0166667 0.05 -0.0333333 0.0166667 0.05 -0.0166667 0.0166667 0.05 0 0.0166667 0.05 0.0166667 0.0166667 0.05 0.0333333 0 0.05 -0.0333333 0 0.05 -0.0166667 0 0.05 0 0 0.05 0.0166667 0 0.05 0.0333333 -0.0166667 0.05 -0.0333333 -0.0166667 0.05 -0.0166667 -0.0166667 0.05 0 -0.0166667 0.05 0.0166667 -0.0166667 0.05 0.0333333 -0.0333333 0.05 -0.0333333 -0.0333333 0.05 -0.0166667 -0.0333333 0.05 1.77636e-18 -0.0333333 0.05 0.0166667 -0.0333333 0.05 0.0333333 -0.05 0.0333333 -0.0333333 -0.05 0.0333333 -0.0166667 -0.05 0.0333333 0 -0.05 0.0333333 0.0166667 -0.05 0.0333333 0.0333333 -0.05 0.0166667 -0.0333333 -0.05 0.0166667 -0.0166667 -0.05 0.0166667 0 -0.05 0.0166667 0.0166667 -0.05 0.0166667 0.0333333 -0.05 0 -0.0333333 -0.05 0 -0.0166667 -0.05 0 0 -0.05 0 0.0166667 -0.05 0 0.0333333 -0.05 -0.0166667 -0.0333333 -0.05 -0.0166667 -0.0166667 -0.05 -0.0166667 0 -0.05 -0.0166667 0.0166667 -0.05 -0.0166667 0.0333333 -0.05 -0.0333333 -0.0333333 -0.05 -0.0333333 -0.0166667 -0.05 -0.0333333 1.77636e-18 -0.05 -0.0333333 0.0166667 -0.05 -0.0333333 0.0333333 -0.0333333 0.0333333 -0.0333333 -0.0333333 0.0333333 -0.0166667 -0.0333333 0.0333333 4.44089e-19 -0.0333333 0.0333333 0.0166667 -0.0333333 0.0333333 0.0333333 -0.0333333 0.0166667 -0.0333333 -0.0333333 0.0166667 -0.0166667 -0.0333333 0.0166667 -4.44089e-18 -0.0333333 0.0166667 0.0166667 -0.0333333 0.0166667 0.0333333 -0.0333333 -6.66134e-18 -0.0333333 -0.0333333 -9.76996e-18 -0.0166667 -0.0333333 -1.77636e-18 -1.77636e-18 -0.0333333 -1.77636e-18 0.0166667 -0.0333333 3.55271e-18 0.0333333 -0.0333333 -0.0166667 -0.0333333 -0.0333333 -0.0166667 -0.0166667 -0.0333333 -0.0166667 1.77636e-18 -0.0333333 -0.0166667 0.0166667 -0.0333333 -0.0166667 0.0333333 -0.0333333 -0.0333333 -0.0333333 -0.0333333 -0.0333333 -0.0166667 -0.0333333 -0.0333333 0 -0.0333333 -0.0333333 0.0166667 -0.0333333 -0.0333333 0.0333333 -0.0166667 0.0333333 -0.0333333 -0.0166667 0.0333333 -0.0166667 -0.0166667 0.0333333 2.66454e-18 -0.0166667 0.0333333 0.0166667 -0.0166667 0.0333333 0.0333333 -0.0166667 0.0166667 -0.0333333 -0.0166667 0.0166667 -0.0166667 -0.0166667 0.0166667 -1.77636e-18 -0.0166667 0.0166667 0.0166667 -0.0166667 0.0166667 0.0333333 -0.0166667 -1.06581e-17 -0.0333333 -0.0166667 -1.15463e-17 -0.0166667 -0.0166667 -3.55271e-18 0 -0.0166667 -8.88178e-18 0.0166667 -0.0166667 -1.77636e-18 0.0333333 -0.0166667 -0.0166667 -0.0333333 -0.0166667 -0.0166667 -0.0166667 -0.0166667 -0.0166667 3.55271e-18 -0.0166667 -0.0166667 0.0166667 -0.0166667 -0.0166667 0.0333333 -0.0166667 -0.0333333 -0.0333333 -0.0166667 -0.0333333 -0.0166667 -0.0166667 -0.0333333 0 -0.0166667 -0.0333333 0.0166667 -0.0166667 -0.0333333 0.0333333 3.44169e-18 0.0333333 -0.0333333 1.02141e-17 0.0333333 -0.0166667 2.66454e-18 0.0333333 -8.88178e-19 6.21725e-18 0.0333333 0.0166667 1.33227e-18 0.0333333 0.0333333 7.99361e-18 0.0166667 -0.0333333 8.43769e-18 0.0166667 -0.0166667 8.88178e-19 0.0166667 8.88178e-19 7.99361e-18 0.0166667 0.0166667 3.55271e-18 0.0166667 0.0333333 3.55271e-18 -1.77636e-18 -0.0333333 9.76996e-18 -9.76996e-18 -0.0166667 0 -8.88178e-19 -8.88178e-19 8.88178e-18 -8.88178e-18 0.0166667 1.77636e-18 -1.77636e-18 0.0333333 1.02141e-17 -0.0166667 -0.0333333 1.24345e-17 -0.0166667 -0.0166667 3.55271e-18 -0.0166667 -1.77636e-18 8.88178e-18 -0.0166667 0.0166667 3.55271e-18 -0.0166667 0.0333333 5.77316e-18 -0.0333333 -0.0333333 4.44089e-18 -0.0333333 -0.0166667 1.77636e-18 -0.0333333 1.77636e-18 5.32907e-18 -0.0333333 0.0166667 0 -0.0333333 0.0333333 0.0166667 0.0333333 -0.0333333 0.0166667 0.0333333 -0.0166667 0.0166667 0.0333333 -2.66454e-18 0.0166667 0.0333333 0.0166667 0.0166667 0.0333333 0.0333333 0.0166667 0.0166667 -0.0333333 0.0166667 0.0166667 -0.0166667 0.0166667 0.0166667 3.10862e-18 0.0166667 0.0166667 0.0166667 0.0166667 0.0166667 0.0333333 0.0166667 -1.24345e-17 -0.0333333 0.0166667 -1.37668e-17 -0.0166667 0.0166667 -3.55271e-18 -1.77636e-18 0.0166667 -6.21725e-18 0.0166667 0.0166667 -8.88178e-19 0.0333333 0.0166667 -0.0166667 -0.0333333 0.0166667 -0.0166667 -0.0166667 0.0166667 -0.0166667 2.66454e-18 0.0166667 -0.0166667 0.0166667 0.0166667 -0.0166667 0.0333333 0.0166667 -0.0333333 -0.0333333 0.0166667 -0.0333333 -0.0166667 0.0166667 -0.0333333 0 0.0166667 -0.0333333 0.0166667 0.0166667 -0.0333333 0.0333333 0.0333333 0.0333333 -0.0333333 0.0333333 0.0333333 -0.0166667 0.0333333 0.0333333 3.33067e-19 0.0333333 0.0333333 0.0166667 0.0333333 0.0333333 0.0333333 0.0333333 0.0166667 -0.0333333 0.0333333 0.0166667 -0.0166667 0.0333333 0.0166667 1.11022e-18 0.0333333 0.0166667 0.0166667 0.0333333 0.0166667 0.0333333 0.0333333 -4.44089e-18 -0.0333333 0.0333333 -4.21885e-18 -0.0166667 0.0333333 8.88178e-19 8.88178e-19 0.0333333 -1.33227e-18 0.0166667 0.0333333 3.55271e-18 0.0333333 0.0333333 -0.0166667 -0.0333333 0.0333333 -0.0166667 -0.0166667 0.0333333 -0.0166667 2.22045e-18 0.0333333 -0.0166667 0.0166667 0.0333333 -0.0166667 0.0333333 0.0333333 -0.0333333 -0.0333333 0.0333333 -0.0333333 -0.0166667 0.0333333 -0.0333333 2.22045e-18 0.0333333 -0.0333333 0.0166667 0.0333333 -0.0333333 0.0333333 </DataArray>
</Points>
<Cells>
<DataArray type="Int32" Name="connectivity" format="ascii">
68 22 3 23 218 188 63 193 218 188 63 193 219 189 64 194 219 189 64 194 220 190 65 195 220 190 65 195 221 191 66 196 221 191 66 196 222 192 67 197 222 192 67 197 97 42 7 43 69 68 23 24 223 218 193 198 223 218 193 198 224 219 194 199 224 219 194 199 225 220 195 200 225 220 195 200 226 221 196 201 226 221 196 201 227 222 197 202 227 222 197 202 96 97 43 44 70 69 24 25 228 223 198 203 228 223 198 203 229 224 199 204 229 224 199 204 230 225 200 205 230 225 200 205 231 226 201 206 231 226 201 206 232 227 202 207 232 227 202 207 95 96 44 45 71 70 25 26 233 228 203 208 233 228 203 208 234 229 204 209 234 229 204 209 235 230 205 210 235 230 205 210 236 231 206 211 236 231 206 211 237 232 207 212 237 232 207 212 94 95 45 46 72 71 26 27 238 233 208 213 238 233 208 213 239 234 209 214 239 234 209 214 240 235 210 215 240 235 210 215 241 236 211 216 241 236 211 216 242 237 212 217 242 237 212 217 93 94 46 47 8 72 27 0 118 238 213 48 118 238 213 48 119 239 214 49 119 239 214 49 120 240 215 50 120 240 215 50 121 241 216 51 121 241 216 51 122 242 217 52 122 242 217 52 28 93 47 4 73 21 22 68 243 183 188 218 243 183 188 218 244 184 189 219 244 184 189 219 245 185 190 220 245 185 190 220 246 186 191 221 246 186 191 221 247 187 192 222 247 187 192 222 102 41 42 97 74 73 68 69 248 243 218 223 248 243 218 223 249 244 219 224 249 244 219 224 250 245 220 225 250 245 220 225 251 246 221 226 251 246 221 226 252 247 222 227 252 247 222 227 101 102 97 96 75 74 69 70 253 248 223 228 253 248 223 228 254 249 224 229 254 249 224 229 255 250 225 230 255 250 225 230 256 251 226 231 256 251 226 231 257 252 227 232 257 252 227 232 100 101 96 95 76 75 70 71 258 253 228 233 258 253 228 233 259 254 229 234 259 254 229 234 260 255 230 235 260 255 230 235 261 256 231 236 261 256 231 236 262 257 232 237 262 257 232 237 99 100 95 94 77 76 71 72 263 258 233 238 263 258 233 238 264 259 234 239 264 259 234 239 265 260 235 240 265 260 235 240 266 261 236 241 266 261 236 241 267 262 237 242 267 262 237 242 98 99 94 93 9 77 72 8 123 263 238 118 123 263 238 118 124 264 239 119 124 264 239 119 125 265 240 120 125 265 240 120 126 266 241 121 126 266 241 121 127 267 242 122 127 267 242 122 29 98 93 28 78 20 21 73 268 178 183 243 268 178 183 243 269 179 184 244 269 179 184 244 270 180 185 245 270 180 185 245 271 181 186 246 271 181 186 246 272 182 187 247 272 182 187 247 107 40 41 102 79 78 73 74 273 268 243 248 273 268 243 248 274 269 244 249 274 269 244 249 275 270 245 250 275 270 245 250 276 271 246 251 276 271 246 251 277 272 247 252 277 272 247 252 106 107 102 101 80 79 74 75 278 273 248 253 278 273 248 253 279 274 249 254 279 274 249 254 280 275 250 255 280 275 250 255 281 276 251 256 281 276 251 256 282 277 252 257 282 277 252 257 105 106 101 100 81 80 75 76 283 278 253 258 283 278 253 258 284 279 254 259 284 279 254 259 285 280 255 260 285 280 255 260 286 281 256 261 286 281 256 261 287 282 257 262 287 282 257 262 104 105 100 99 82 81 76 77 288 283 258 263 288 283 258 263 289 284 259 264 289 284 259 264 290 285 260 265 290 285 260 265 291 286 261 266 291 286 261 266 292 287 262 267 292 287 262 267 103 104 99 98 10 82 77 9 128 288 263 123 128 288 263 123 129 289 264 124 129 289 264 124 130 290 265 125 130 290 265 125 131 291 266 126 131 291 266 126 132 292 267 127 132 292 267 127 30 103 98 29 83 19 20 78 293 173 178 268 293 173 178 268 294 174 179 269 294 174 179 269 295 175 180 270 295 175 180 270 296 176 181 271 296 176 181 271 297 177 182 272 297 177 182 272 112 39 40 107 84 83 78 79 298 293 268 273 298 293 268 273 299 294 269 274 299 294 269 274 300 295 270 275 300 295 270 275 301 296 271 276 301 296 271 276 302 297 272 277 302 297 272 277 111 112 107 106 85 84 79 80 303 298 273 278 303 298 273 278 304 299 274 279 304 299 274 279 305 300 275 280 305 300 275 280 306 301 276 281 306 301 276 281 307 302 277 282 307 302 277 282 110 111 106 105 86 85 80 81 308 303 278 283 308 303 278 283 309 304 279 284 309 304 279 284 310 305 280 285 310 305 280 285 311 306 281 286 311 306 281 286 312 307 282 287 312 307 282 287 109 110 105 104 87 86 81 82 313 308 283 288 313 308 283 288 314 309 284 289 314 309 284 289 315 310 285 290 315 310 285 290 316 311 286 291 316 311 286 291 317 312 287 292 317 312 287 292 108 109 104 103 11 87 82 10 133 313 288 128 133 313 288 128 134 314 289 129 134 314 289 129 135 315 290 130 135 315 290 130 136 316 291 131 136 316 291 131 137 317 292 132 137 317 292 132 31 108 103 30 88 18 19 83 318 168 173 293 318 168 173 293 319 169 174 294 319 169 174 294 320 170 175 295 320 170 175 295 321 171 176 296 321 171 176 296 322 172 177 297 322 172 177 297 117 38 39 112 89 88 83 84 323 318 293 298 323 318 293 298 324 319 294 299 324 319 294 299 325 320 295 300 325 320 295 300 326 321 296 301 326 321 296 301 327 322 297 302 327 322 297 302 116 117 112 111 90 89 84 85 328 323 298 303 328 323 298 303 329 324 299 304 329 324 299 304 330 325 300 305 330 325 300 305 331 326 301 306 331 326 301 306 332 327 302 307 332 327 302 307 115 116 111 110 91 90 85 86 333 328 303 308 333 328 303 308 334 329 304 309 334 329 304 309 335 330 305 310 335 330 305 310 336 331 306 311 336 331 306 311 337 332 307 312 337 332 307 312 114 115 110 109 92 91 86 87 338 333 308 313 338 333 308 313 339 334 309 314 339 334 309 314 340 335 310 315 340 335 310 315 341 336 311 316 341 336 311 316 342 337 312 317 342 337 312 317 113 114 109 108 12 92 87 11 138 338 313 133 138 338 313 133 139 339 314 134 139 339 314 134 140 340 315 135 140 340 315 135 141 341 316 136 141 341 316 136 142 342 317 137 142 342 317 137 32 113 108 31 17 2 18 88 163 58 168 318 163 58 168 318 164 59 169 319 164 59 169 319 165 60 170 320 165 60 170 320 166 61 171 321 166 61 171 321 167 62 172 322 167 62 172 322 37 6 38 117 16 17 88 89 158 163 318 323 158 163 318 323 159 164 319 324 159 164 319 324 160 165 320 325 160 165 320 325 161 166 321 326 161 166 321 326 162 167 322 327 162 167 322 327 36 37 117 116 15 16 89 90 153 158 323 328 153 158 323 328 154 159 324 329 154 159 324 329 155 160 325 330 155 160 325 330 156 161 326 331 156 161 326 331 157 162 327 332 157 162 327 332 35 36 116 115 14 15 90 91 148 153 328 333 148 153 328 333 149 154 329 334 149 154 329 334 150 155 330 335 150 155 330 335 151 156 331 336 151 156 331 336 152 157 332 337 152 157 332 337 34 35 115 114 13 14 91 92 143 148 333 338 143 148 333 338 144 149 334 339 144 149 334 339 145 150 335 340 145 150 335 340 146 151 336 341 146 151 336 341 147 152 337 342 147 152 337 342 33 34 114 113 1 13 92 12 53 143 338 138 53 143 338 138 54 144 339 139 54 144 339 139 55 145 340 140 55 145 340 140 56 146 341 141 56 146 341 141 57 147 342 142 57 147 342 142 5 33 113 32 </DataArray>
<DataArray type="Int32" Name="offsets" format="ascii">
8 16 24 32 40 48 56 64 72 80 88 96 104 112 120 128 136 144 152 160 168 176 184 192 200 208 216 224 232 240 248 256 264 272 280 288 296 304 312 320 328 336 344 352 360 368 376 384 392 400 408 416 424 432 440 448 456 464 472 480 488 496 504 512 520 528 536 544 552 560 568 576 584 592 600 608 616 624 632 640 648 656 664 672 680 688 696 704 712 720 728 736 744 752 760 768 776 784 792 800 808 816 824 832 840 848 856 864 872 880 888 896 904 912 920 928 936 944 952 960 968 976 984 992 1000 1008 1016 1024 1032 1040 1048 1056 1064 1072 1080 1088 1096 1104 1112 1120 1128 1136 1144 1152 1160 1168 1176 1184 1192 1200 1208 1216 1224 1232 1240 1248 1256 1264 1272 1280 1288 1296 1304 1312 1320 1328 1336 1344 1352 1360 1368 1376 1384 1392 1400 1408 1416 1424 1432 1440 1448 1456 1464 1472 1480 1488 1496 1504 1512 1520 1528 1536 1544 1552 1560 1568 1576 1584 1592 1600 1608 1616 1624 1632 1640 1648 1656 1664 1672 1680 1688 1696 1704 1712 1720 1728 </DataArray>
<DataArray type="UInt8" Name="types" format="ascii">
12 12 12 12 12 12 12 12 12 12 12 12 12 12 12 12 12 12 12 12 12 12 12 12 12 12 12 12 12 12 12 12 12 12 12 12 12 12 12 12 12 12 12 12 12 12 12 12 12 12 12 12 12 12 12 12 12 12 12 12 12 12 12 12 12 12 12 12 12 12 12 12 12 12 12 12 12 12 12 12 12 12 12 12 12 12 12 12 12 12 12 12 12 12 12 12 12 12 12 12 12 12 12 12 12 12 12 12 12 12 12 12 12 12 12 12 12 12 12 12 12 12 12 12 12 12 12 12 12 12 12 12 12 12 12 12 12 12 12 12 12 12 12 12 12 12 12 12 12 12 12 12 12 12 12 12 12 12 12 12 12 12 12 12 12 12 12 12 12 12 12 12 12 12 12 12 12 12 12 12 12 12 12 12 12 12 12 12 12 12 12 12 12 12 12 12 12 12 12 12 12 12 12 12 12 12 12 12 12 12 12 12 12 12 12 12 </DataArray>
</Cells>
<CellData Scalars="scalars">
<DataArray type="Float32" Name="number_density" format="ascii">
8.424e+15 7.992e+15 1.08e+16 8.856e+15 8.856e+15 9.288e+15 8.208e+15 9.72e+15 7.992e+15 1.2312e+16 9.072e+15 1.08e+16 1.1664e+16 8.424e+15 8.208e+15 6.912e+15 9.504e+15 1.2744e+16 8.208e+15 1.1664e+16 9.936e+15 7.128e+15 9.936e+15 9.288e+15 1.0584e+16 7.992e+15 1.3176e+16 1.1448e+16 7.56e+15 1.1232e+16 1.08e+16 8.856e+15 9.72e+15 9.288e+15 1.0584e+16 8.424e+15 9.072e+15 9.936e+15 9.936e+15 8.64e+15 1.0368e+16 8.856e+15 8.856e+15 6.912e+15 7.992e+15 1.2744e+16 1.1664e+16 1.188e+16 8.856e+15 1.1448e+16 9.504e+15 1.1664e+16 1.2096e+16 9.504e+15 1.0368e+16 1.1448e+16 8.208e+15 9.936e+15 1.1448e+16 1.0584e+16 9.936e+15 9.072e+15 8.208e+15 9.504e+15 8.424e+15 9.504e+15 1.0368e+16 9.72e+15 1.2744e+16 8.856e+15 1.3176e+16 9.936e+15 7.56e+15 9.72e+15 1.1232e+16 9.288e+15 7.776e+15 9.072e+15 8.64e+15 9.504e+15 9.288e+15 1.08e+16 9.72e+15 1.0368e+16 7.344e+15 1.1448e+16 1.296e+16 1.1232e+16 1.3176e+16 1.1448e+16 8.64e+15 1.08e+16 1.4256e+16 1.1448e+16 1.0152e+16 9.288e+15 9.072e+15 8.64e+15 8.64e+15 1.0368e+16 1.1448e+16 8.856e+15 9.72e+15 1.1016e+16 9.504e+15 9.072e+15 1.0152e+16 9.288e+15 1.1232e+16 1.08e+16 1.0368e+16 1.0584e+16 1.0152e+16 1.2528e+16 9.72e+15 1.08e+16 1.0368e+16 8.64e+15 1.1664e+16 1.1016e+16 1.0368e+16 1.0152e+16 1.2312e+16 9.504e+15 1.188e+16 1.1016e+16 7.992e+15 8.64e+15 1.1016e+16 8.424e+15 8.64e+15 1.188e+16 1.296e+16 9.504e+15 9.288e+15 1.404e+16 1.0584e+16 9.072e+15 7.344e+15 1.0584e+16 7.344e+15 1.0368e+16 6.912e+15 1.0368e+16 8.424e+15 1.0152e+16 9.504e+15 9.72e+15 9.936e+15 1.0368e+16 1.1016e+16 1.1016e+16 1.0584e+16 1.2528e+16 9.72e+15 9.504e+15 9.72e+15 1.188e+16 9.936e+15 9.936e+15 9.504e+15 1.1448e+16 1.1448e+16 7.128e+15 1.08e+16 1.0368e+16 1.2528e+16 1.1664e+16 1.0368e+16 1.0152e+16 7.56e+15 7.776e+15 7.56e+15 1.1664e+16 1.0368e+16 7.992e+15 9.72e+15 8.424e+15 1.0152e+16 1.1016e+16 9.72e+15 9.72e+15 1.08e+16 1.08e+16 8.208e+15 1.0368e+16 9.288e+15 1.2096e+16 1.0584e+16 1.08e+16 9.936e+15 1.0368e+16 9.936e+15 9.936e+15 9.072e+15 1.2096e+16 9.936e+15 1.0368e+16 1.1664e+16 7.344e+15 8.424e+15 1.2528e+16 9.072e+15 1.0584e+16 1.0152e+16 9.72e+15 1.1016e+16 9.936e+15 1.0152e+16 1.0584e+16 9.072e+15 7.344e+15 9.936e+15 8.64e+15 9.072e+15 1.3176e+16 </DataArray>
<DataArray type="Float32" Name="potential" format="ascii">
0 0 0 0 0 0 0 0 0 0 0 0 0 0 0 0 0 0 0 0 0 0 0 0 0 0 0 0 0 0 0 0 0 0 0 0 0 0 0 0 0 0 0 0 0 0 0 0 0 0 0 0 0 0 0 0 0 0 0 0 0 0 0 0 0 0 0 0 0 0 0 0 0 0 0 0 0 0 0 0 0 0 0 0 0 0 0 0 0 0 0 0 0 0 0 0 0 0 0 0 0 0 0 0 0 0 0 0 0 0 0 0 0 0 0 0 0 0 0 0 0 0 0 0 0 0 0 0 0 0 0 0 0 0 0 0 0 0 0 0 0 0 0 0 0 0 0 0 0 0 0 0 0 0 0 0 0 0 0 0 0 0 0 0 0 0 0 0 0 0 0 0 0 0 0 0 0 0 0 0 0 0 0 0 0 0 0 0 0 0 0 0 0 0 0 0 0 0 0 0 0 0 0 0 0 0 0 0 0 0 0 0 0 0 0 0 </DataArray>
<DataArray type="Float32" Name="temperature" format="ascii">
254.927 306.882 287.029 305.464 302.236 291.242 265.126 367.104 336.19 357.032 311.742 385.229 298.11 308.134 274.22 324.55 313.047 319.658 319.37 307.45 274.386 356.793 308.652 280.614 220.44 289.287 296.919 265.602 266.622 331.383 313.76 322.785 291.056 246.677 291.611 336.816 237.072 244.712 306.536 249.42 288.153 276.769 325.635 310.938 360.396 317.689 256.713 302.049 278.332 348.88 287.242 277.642 389.806 290.562 260.798 245.849 286.116 278.427 273.393 331.385 461.545 249.022 303.398 245.614 299.67 213.323 312.074 287.276 250.907 296.911 282.745 274.098 276.843 241.666 339.251 296.675 325.343 325.943 245.78 263.324 363.622 319.917 272.485 273.627 340.858 319.627 306.951 274.447 286.695 332.205 291.097 323.724 293.46 315.689 308.173 270.203 288.923 314.379 312.57 275.782 312.313 208.683 283.11 332.5 252.255 426.915 305.991 380.669 288.212 293.774 351.013 343.45 244.479 239.117 224.734 318.52 289.862 310.282 334.436 223.933 276.343 291.978 321.798 355.617 331.014 308.357 313.826 305.028 351.254 346.054 380.43 297.825 288.353 361.019 310.672 275.152 300.11 323.814 381.177 327.145 348.315 285.394 264.87 238.446 254.293 309.697 346.395 246.977 267.503 277.806 318.01 263.345 307.741 325.676 275.174 324.361 261.65 278.42 325.152 302.38 311.937 345.267 324.189 299.329 283.263 351.52 328.618 245.677 279.339 319.837 298.365 245.255 327.708 304.161 265.097 326.086 263.207 266.781 342.463 289.344 308.121 295.652 343.724 266.067 294.819 327.428 323.772 294.066 287.125 300.709 240.242 280.442 276.23 285.83 238.027 259.733 345.606 318.911 256.392 263.64 265.076 316.868 241.293 316.665 278.972 237.004 267.921 314.395 299.224 284.8 270.411 271.477 291.815 317.187 212.638 231.697 </DataArray>
<DataArray type="Float32" Name="velocity" format="ascii">
77.9378 96.7093 98.3453 114.38 75.8239 66.5761 85.783 113.254 153.979 149.666 129.686 84.7233 54.1689 113.887 224.588 194.611 58.3059 18.62 97.5163 145.989 180.446 73.6982 56.9234 90.4269 51.6869 81.4822 60.6244 126.575 41.3522 94.4151 56.3128 47.7124 114.837 124.691 144.469 41.6627 81.0447 181.213 134.919 101.181 29.2405 74.1505 82.5464 169.383 101.986 117.458 117.892 37.6293 140.327 154.649 236.455 219.384 117.942 46.0455 134.705 161.851 213.29 139.81 74.2116 55.298 91.6263 182.713 175.981 168.283 95.2246 81.8078 57.5852 93.0145 115.52 100.924 48.1228 56.4623 121.048 96.6583 140.882 121.829 68.0668 53.9016 163.867 159.843 232.764 149.809 66.39 48.9788 165.091 292.729 256.346 138.156 68.5468 74.6192 150.111 253.585 340.931 168.494 94.3664 79.3726 64.464 186.561 267.845 178.365 94.2041 135.055 116.97 151.998 103.596 67.4503 27.6763 39.7951 82.3429 85.8549 142.144 173.583 61.3043 29.4989 124.421 188.453 232.655 90.5512 40.4448 34.6655 245.48 235.313 283.576 148.03 79.5428 86.2279 244.204 250.86 259.676 201.385 97.7645 105.628 143.973 206.039 215.051 227.863 111.951 33.2528 105.454 143.394 166.359 141.298 103.983 88.611 116.947 97.9526 152.065 43.9916 35.5123 45.9754 145.775 161.852 133.386 92.0076 93.7658 95.8597 192.687 153.392 181.647 127.355 62.4586 39.0602 140.077 163.559 208.51 193.169 150.427 63.1637 40.6509 153.329 205.062 179.961 90.9623 79.9491 58.4011 68.3264 132.182 83.5228 64.4798 113.727 56.7807 56.4558 62.083 70.2147 27.5118 52.7032 56.6332 147.362 44.295 97.7081 69.5229 80.9094 56.1777 130.924 118.63 118.297 61.8609 91.3467 82.1115 237.425 170.4 146.365 126.579 54.7891 70.6686 122.917 125.274 111.89 31.5464 37.2547 84.2556 66.9747 131.163 99.865 60.0258 87.02 </DataArray>
<DataArray type="Float32" Name="E_field" format="ascii">
0 0 0 0 0 0 0 0 0 0 0 0 0 0 0 0 0 0 0 0 0 0 0 0 0 0 0 0 0 0 0 0 0 0 0 0 0 0 0 0 0 0 0 0 0 0 0 0 0 0 0 0 0 0 0 0 0 0 0 0 0 0 0 0 0 0 0 0 0 0 0 0 0 0 0 0 0 0 0 0 0 0 0 0 0 0 0 0 0 0 0 0 0 0 0 0 0 0 0 0 0 0 0 0 0 0 0 0 0 0 0 0 0 0 0 0 0 0 0 0 0 0 0 0 0 0 0 0 0 0 0 0 0 0 0 0 0 0 0 0 0 0 0 0 0 0 0 0 0 0 0 0 0 0 0 0 0 0 0 0 0 0 0 0 0 0 0 0 0 0 0 0 0 0 0 0 0 0 0 0 0 0 0 0 0 0 0 0 0 0 0 0 0 0 0 0 0 0 0 0 0 0 0 0 0 0 0 0 0 0 0 0 0 0 0 0 </DataArray>
</CellData>
<PointData Scalars="number_density">
<DataArray type="Float32" Name="number_density" format="ascii">
1.08e+16 9.072e+15 9.72e+15 8.424e+15 8.424e+15 1.3176e+16 1.0368e+16 9.288e+15 1.0584e+16 1.0044e+16 8.532e+15 8.856e+15 9.72e+15 9.612e+15 1.0908e+16 1.08e+16 9.612e+15 9.504e+15 9.072e+15 9.828e+15 9.396e+15 8.316e+15 8.748e+15 8.316e+15 9.936e+15 9.936e+15 9.396e+15 1.0692e+16 9.18e+15 9.612e+15 9.828e+15 1.0692e+16 1.2096e+16 1.188e+16 1.0584e+16 1.0476e+16 1.0368e+16 1.0368e+16 1.0368e+16 1.1448e+16 1.08e+16 8.964e+15 9.072e+15 1.0044e+16 1.1772e+16 1.1016e+16 1.026e+16 9.828e+15 9.828e+15 9.288e+15 9.504e+15 9.936e+15 9.504e+15 8.208e+15 8.64e+15 9.288e+15 8.856e+15 1.1124e+16 9.72e+15 1.026e+16 1.08e+16 9.504e+15 9.288e+15 8.208e+15 9.396e+15 9.828e+15 8.856e+15 9.072e+15 8.64e+15 9.396e+15 9.774e+15 9.774e+15 1.0422e+16 8.532e+15 8.424e+15 8.802e+15 9.504e+15 9.774e+15 9.288e+15 9.018e+15 8.586e+15 9.666e+15 9.774e+15 1.0098e+16 1.0206e+16 9.882e+15 1.0692e+16 1.026e+16 9.612e+15 9.99e+15 1.0692e+16 1.0908e+16 9.99e+15 9.774e+15 1.0152e+16 1.053e+16 1.1232e+16 1.0206e+16 9.396e+15 9.558e+15 1.0206e+16 1.08e+16 1.0044e+16 9.396e+15 9.774e+15 1.0908e+16 1.0962e+16 1.0746e+16 1.053e+16 1.107e+16 1.1502e+16 1.0746e+16 1.0854e+16 1.161e+16 1.1124e+16 1.1016e+16 1.0422e+16 1.0152e+16 9.936e+15 1.026e+16 1.0152e+16 1.0476e+16 1.053e+16 1.0206e+16 1.0746e+16 1.0044e+16 1.0314e+16 1.0638e+16 9.666e+15 9.612e+15 9.072e+15 9.126e+15 9.18e+15 9.072e+15 8.91e+15 8.964e+15 8.964e+15 9.612e+15 8.694e+15 8.748e+15 9.18e+15 9.072e+15 1.0854e+16 9.072e+15 9.504e+15 9.882e+15 9.45e+15 1.0746e+16 9.72e+15 9.126e+15 1.0476e+16 1.0422e+16 1.0098e+16 9.72e+15 8.694e+15 1.053e+16 1.0908e+16 9.99e+15 1.0314e+16 1.0422e+16 1.0638e+16 1.0692e+16 1.0152e+16 1.0206e+16 1.08e+16 1.0746e+16 9.936e+15 9.72e+15 9.504e+15 1.0044e+16 1.0206e+16 9.666e+15 9.72e+15 1.0152e+16 1.0206e+16 1.0044e+16 1.0098e+16 1.0746e+16 9.828e+15 1.053e+16 1.0368e+16 9.45e+15 9.882e+15 9.072e+15 1.0206e+16 9.774e+15 9.018e+15 9.018e+15 8.856e+15 9.666e+15 9.558e+15 9.18e+15 9.342e+15 8.586e+15 9.126e+15 9.99e+15 9.774e+15 9.504e+15 9.504e+15 8.586e+15 8.856e+15 9.45e+15 1.053e+16 9.99e+15 9.558e+15 8.046e+15 8.37e+15 1.0368e+16 9.612e+15 1.0692e+16 1.0422e+16 9.018e+15 9.504e+15 9.558e+15 9.936e+15 1.0908e+16 9.72e+15 9.45e+15 8.64e+15 8.91e+15 9.909e+15 1.0314e+16 1.0098e+16 9.261e+15 8.775e+15 9.666e+15 1.0746e+16 1.0908e+16 1.026e+16 9.855e+15 8.937e+15 9.828e+15 1.0638e+16 9.909e+15 9.963e+15 9.693e+15 9.423e+15 9.747e+15 9.666e+15 9.936e+15 1.0368e+16 9.855e+15 9.855e+15 8.775e+15 9.315e+15 9.99e+15 1.0125e+16 9.963e+15 9.126e+15 9.882e+15 1.0773e+16 1.1637e+16 1.1232e+16 1.0044e+16 1.1259e+16 1.1151e+16 1.1394e+16 1.0962e+16 9.747e+15 9.909e+15 1.0071e+16 1.0341e+16 9.963e+15 9.693e+15 9.693e+15 9.612e+15 1.0125e+16 1.0098e+16 9.747e+15 1.026e+16 1.0071e+16 9.828e+15 1.0287e+16 9.747e+15 1.0854e+16 1.0638e+16 1.0827e+16 1.1286e+16 9.423e+15 1.1448e+16 1.1394e+16 1.0557e+16 1.0935e+16 9.531e+15 1.0098e+16 1.0935e+16 1.0638e+16 9.99e+15 9.855e+15 9.315e+15 9.828e+15 1.0368e+16 9.585e+15 1.0395e+16 1.0449e+16 1.0287e+16 1.0368e+16 1.0611e+16 1.0584e+16 1.0881e+16 1.0476e+16 1.0422e+16 1.0719e+16 9.666e+15 1.0233e+16 1.0287e+16 1.0098e+16 1.107e+16 9.774e+15 9.261e+15 9.909e+15 9.99e+15 1.0449e+16 9.909e+15 9.018e+15 9.315e+15 9.477e+15 9.666e+15 1.0179e+16 1.0557e+16 1.0665e+16 1.0206e+16 9.801e+15 1.0611e+16 1.0638e+16 1.0692e+16 1.0557e+16 1.0098e+16 9.882e+15 9.315e+15 1.0395e+16 1.0746e+16 1.0638e+16 9.747e+15 9.018e+15 9.801e+15 9.99e+15 1.0476e+16 9.396e+15 9.18e+15 9.126e+15 8.964e+15 1.0422e+16 </DataArray>
<DataArray type="Float32" Name="potential" format="ascii">
0 0 0 0 0 0 0 0 0 0 0 0 0 0 0 0 0 0 0 0 0 0 0 0 0 0 0 0 0 0 0 0 0 0 0 0 0 0 0 0 0 0 0 0 0 0 0 0 0 0 0 0 0 0 0 0 0 0 0 0 0 0 0 0 0 0 0 0 0 0 0 0 0 0 0 0 0 0 0 0 0 0 0 0 0 0 0 0 0 0 0 0 0 0 0 0 0 0 0 0 0 0 0 0 0 0 0 0 0 0 0 0 0 0 0 0 0 0 0 0 0 0 0 0 0 0 0 0 0 0 0 0 0 0 0 0 0 0 0 0 0 0 0 0 0 0 0 0 0 0 0 0 0 0 0 0 0 0 0 0 0 0 0 0 0 0 0 0 0 0 0 0 0 0 0 0 0 0 0 0 0 0 0 0 0 0 0 0 0 0 0 0 0 0 0 0 0 0 0 0 0 0 0 0 0 0 0 0 0 0 0 0 0 0 0 0 0 0 0 0 0 0 0 0 0 0 0 0 0 0 0 0 0 0 0 0 0 0 0 0 0 0 0 0 0 0 0 0 0 0 0 0 0 0 0 0 0 0 0 0 0 0 0 0 0 0 0 0 0 0 0 0 0 0 0 0 0 0 0 0 0 0 0 0 0 0 0 0 0 0 0 0 0 0 0 0 0 0 0 0 0 0 0 0 0 0 0 0 0 0 0 0 0 0 0 0 0 0 0 0 0 0 0 0 0 0 0 0 0 0 0 0 0 0 0 0 0 0 0 0 0 0 0 </DataArray>
<DataArray type="Float32" Name="temperature" format="ascii">