<VTKFile type="UnstructuredGrid" version="0.1" byte_order="LittleEndian">
<UnstructuredGrid>
<Piece NumberOfPoints="343" NumberOfCells="216">
<Points>
<DataArray type="Float32" NumberOfComponents="3" format="ascii">
-0.05 -0.05 -0.05 0.05 -0.05 -0.05 0.05 0.05 -0.05 -0.05 0.05 -0.05 -0.05 -0.05 0.05 0.05 -0.05 0.05 0.05 0.05 0.05 -0.05 0.05 0.05 -0.0333333 -0.05 -0.05 -0.0166667 -0.05 -0.05 0 -0.05 -0.05 0.0166667 -0.05 -0.05 0.0333333 -0.05 -0.05 0.05 -0.0333333 -0.05 0.05 -0.0166667 -0.05 0.05 0 -0.05 0.05 0.0166667 -0.05 0.05 0.0333333 -0.05 0.0333333 0.05 -0.05 0.0166667 0.05 -0.05 0 0.05 -0.05 -0.0166667 0.05 -0.05 -0.0333333 0.05 -0.05 -0.05 0.0333333 -0.05 -0.05 0.0166667 -0.05 -0.05 0 -0.05 -0.05 -0.0166667 -0.05 -0.05 -0.0333333 -0.05 -0.0333333 -0.05 0.05 -0.0166667 -0.05 0.05 0 -0.05 0.05 0.0166667 -0.05 0.05 0.0333333 -0.05 0.05 0.05 -0.0333333 0.05 0.05 -0.0166667 0.05 0.05 0 0.05 0.05 0.0166667 0.05 0.05 0.0333333 0.05 0.0333333 0.05 0.05 0.0166667 0.05 0.05 0 0.05 0.05 -0.0166667 0.05 0.05 -0.0333333 0.05 0.05 -0.05 0.0333333 0.05 -0.05 0.0166667 0.05 -0.05 0 0.05 -0.05 -0.0166667 0.05 -0.05 -0.0333333 0.05 -0.05 -0.05 -0.0333333 -0.05 -0.05 -0.0166667 -0.05 -0.05 0 -0.05 -0.05 0.0166667 -0.05 -0.05 0.0333333 0.05 -0.05 -0.0333333 0.05 -0.05 -0.0166667 0.05 -0.05 0 0.05 -0.05 0.0166667 0.05 -0.05 0.0333333 0.05 0.05 -0.0333333 0.05 0.05 -0.0166667 0.05 0.05 0 0.05 0.05 0.0166667 0.05 0.05 0.0333333 -0.05 0.05 -0.0333333 -0.05 0.05 -0.0166667 -0.05 0.05 0 -0.05 0.05 0.0166667 -0.05 0.05 0.0333333 -0.0333333 0.0333333 -0.05 -0.0333333 0.0166667 -0.05 -0.0333333 -3.55271e-18 -0.05 -0.0333333 -0.0166667 -0.05 -0.0333333 -0.0333333 -0.05 -0.0166667 0.0333333 -0.05 -0.0166667 0.0166667 -0.05 -0.0166667 -7.10543e-18 -0.05 -0.0166667 -0.0166667 -0.05 -0.0166667 -0.0333333 -0.05 1.77636e-18 0.0333333 -0.05 5.32907e-18 0.0166667 -0.05 3.55271e-18 -1.77636e-18 -0.05 7.10543e-18 -0.0166667 -0.05 3.55271e-18 -0.0333333 -0.05 0.0166667 0.0333333 -0.05 0.0166667 0.0166667 -0.05 0.0166667 -7.10543e-18 -0.05 0.0166667 -0.0166667 -0.05 0.0166667 -0.0333333 -0.05 0.0333333 0.0333333 -0.05 0.0333333 0.0166667 -0.05 0.0333333 -1.77636e-18 -0.05 0.0333333 -0.0166667 -0.05 0.0333333 -0.0333333 -0.05 -0.0333333 -0.0333333 0.05 -0.0333333 -0.0166667 0.05 -0.0333333 0 0.05 -0.0333333 0.0166667 0.05 -0.0333333 0.0333333 0.05 -0.0166667 -0.0333333 0.05 -0.0166667 -0.0166667 0.05 -0.0166667 0 0.05 -0.0166667 0.0166667 0.05 -0.0166667 0.0333333 0.05 0 -0.0333333 0.05 0 -0.0166667 0.05 0 0 0.05 0 0.0166667 0.05 0 0.0333333 0.05 0.0166667 -0.0333333 0.05 0.0166667 -0.0166667 0.05 0.0166667 0 0.05 0.0166667 0.0166667 0.05 0.0166667 0.0333333 0.05 0.0333333 -0.0333333 0.05 0.0333333 -0.0166667 0.05 0.0333333 1.77636e-18 0.05 0.0333333 0.0166667 0.05 0.0333333 0.0333333 0.05 -0.0333333 -0.05 -0.0333333 -0.0333333 -0.05 -0.0166667 -0.0333333 -0.05 0 -0.0333333 -0.05 0.0166667 -0.0333333 -0.05 0.0333333 -0.0166667 -0.05 -0.0333333 -0.0166667 -0.05 -0.0166667 -0.0166667 -0.05 0 -0.0166667 -0.05 0.0166667 -0.0166667 -0.05 0.0333333 0 -0.05 -0.0333333 0 -0.05 -0.0166667 0 -0.05 0 0 -0.05 0.0166667 0 -0.05 0.0333333 0.0166667 -0.05 -0.0333333 0.0166667 -0.05 -0.0166667 0.0166667 -0.05 0 0.0166667 -0.05 0.0166667 0.0166667 -0.05 0.0333333 0.0333333 -0.05 -0.0333333 0.0333333 -0.05 -0.0166667 0.0333333 -0.05 1.77636e-18 0.0333333 -0.05 0.0166667 0.0333333 -0.05 0.0333333 0.05 -0.0333333 -0.0333333 0.05 -0.0333333 -0.0166667 0.05 -0.0333333 0 0.05 -0.0333333 0.0166667 0.05 -0.0333333 0.0333333 0.05 -0.0166667 -0.0333333 0.05 -0.0166667 -0.0166667 0.05 -0.0166667 0 0.05 -0.0166667 0.0166667 0.05 -0.0166667 0.0333333 0.05 0 -0.0333333 0.05 0 -0.0166667 0.05 0 0 0.05 0 0.0166667 0.05 0 0.0333333 0.05 0.0166667 -0.0333333 0.05 0.0166667 -0.0166667 0.05 0.0166667 0 0.05 0.0166667 0.0166667 0.05 0.0166667 0.0333333 0.05 0.0333333 -0.0333333 0.05 0.0333333 -0.0166667 0.05 0.0333333 1.77636e-18 0.05 0.0333333 0.0166667 0.05 0.0333333 0.0333333 0.0333333 0.05 -0.0333333 0.0333333 0.05 -0.0166667 0.0333333 0.05 0 0.0333333 0.05 0.0166667 0.0333333 0.05 0.0333333 0.0166667 0.05 -0.0333333 0.0166667 0.05 -0.0166667 0.0166667 0.05 0 0.0166667 0.05 0.0166667 0.0166667 0.05 0.0333333 0 0.05 -0.0333333 0 0.05 -0.0166667 0 0.05 0 0 0.05 0.0166667 0 0.05 0.0333333 -0.0166667 0.05 -0.0333333 -0.0166667 0.05 -0.0166667 -0.0166667 0.05 0 -0.0166667 0.05 0.0166667 -0.0166667 0.05 0.0333333 -0.0333333 0.05 -0.0333333 -0.0333333 0.05 -0.0166667 -0.0333333 0.05 1.77636e-18 -0.0333333 0.05 0.0166667 -0.0333333 0.05 0.0333333 -0.05 0.0333333 -0.0333333 -0.05 0.0333333 -0.0166667 -0.05 0.0333333 0 -0.05 0.0333333 0.0166667 -0.05 0.0333333 0.0333333 -0.05 0.0166667 -0.0333333 -0.05 0.0166667 -0.0166667 -0.05 0.0166667 0 -0.05 0.0166667 0.0166667 -0.05 0.0166667 0.0333333 -0.05 0 -0.0333333 -0.05 0 -0.0166667 -0.05 0 0 -0.05 0 0.0166667 -0.05 0 0.0333333 -0.05 -0.0166667 -0.0333333 -0.05 -0.0166667 -0.0166667 -0.05 -0.0166667 0 -0.05 -0.0166667 0.0166667 -0.05 -0.0166667 0.0333333 -0.05 -0.0333333 -0.0333333 -0.05 -0.0333333 -0.0166667 -0.05 -0.0333333 1.77636e-18 -0.05 -0.0333333 0.0166667 -0.05 -0.0333333 0.0333333 -0.0333333 0.0333333 -0.0333333 -0.0333333 0.0333333 -0.0166667 -0.0333333 0.0333333 4.44089e-19 -0.0333333 0.0333333 0.0166667 -0.0333333 0.0333333 0.0333333 -0.0333333 0.0166667 -0.0333333 -0.0333333 0.0166667 -0.0166667 -0.0333333 0.0166667 -4.44089e-18 -0.0333333 0.0166667 0.0166667 -0.0333333 0.0166667 0.0333333 -0.0333333 -6.66134e-18 -0.0333333 -0.0333333 -9.76996e-18 -0.0166667 -0.0333333 -1.77636e-18 -1.77636e-18 -0.0333333 -1.77636e-18 0.0166667 -0.0333333 3.55271e-18 0.0333333 -0.0333333 -0.0166667 -0.0333333 -0.0333333 -0.0166667 -0.0166667 -0.0333333 -0.0166667 1.77636e-18 -0.0333333 -0.0166667 0.0166667 -0.0333333 -0.0166667 0.0333333 -0.0333333 -0.0333333 -0.0333333 -0.0333333 -0.0333333 -0.0166667 -0.0333333 -0.0333333 0 -0.0333333 -0.0333333 0.0166667 -0.0333333 -0.0333333 0.0333333 -0.0166667 0.0333333 -0.0333333 -0.0166667 0.0333333 -0.0166667 -0.0166667 0.0333333 2.66454e-18 -0.0166667 0.0333333 0.0166667 -0.0166667 0.0333333 0.0333333 -0.0166667 0.0166667 -0.0333333 -0.0166667 0.0166667 -0.0166667 -0.0166667 0.0166667 -1.77636e-18 -0.0166667 0.0166667 0.0166667 -0.0166667 0.0166667 0.0333333 -0.0166667 -1.06581e-17 -0.0333333 -0.0166667 -1.15463e-17 -0.0166667 -0.0166667 -3.55271e-18 0 -0.0166667 -8.88178e-18 0.0166667 -0.0166667 -1.77636e-18 0.0333333 -0.0166667 -0.0166667 -0.0333333 -0.0166667 -0.0166667 -0.0166667 -0.0166667 -0.0166667 3.55271e-18 -0.0166667 -0.0166667 0.0166667 -0.0166667 -0.0166667 0.0333333 -0.0166667 -0.0333333 -0.0333333 -0.0166667 -0.0333333 -0.0166667 -0.0166667 -0.0333333 0 -0.0166667 -0.0333333 0.0166667 -0.0166667 -0.0333333 0.0333333 3.44169e-18 0.0333333 -0.0333333 1.02141e-17 0.0333333 -0.0166667 2.66454e-18 0.0333333 -8.88178e-19 6.21725e-18 0.0333333 0.0166667 1.33227e-18 0.0333333 0.0333333 7.99361e-18 0.0166667 -0.0333333 8.43769e-18 0.0166667 -0.0166667 8.88178e-19 0.0166667 8.88178e-19 7.99361e-18 0.0166667 0.0166667 3.55271e-18 0.0166667 0.0333333 3.55271e-18 -1.77636e-18 -0.0333333 9.76996e-18 -9.76996e-18 -0.0166667 0 -8.88178e-19 -8.88178e-19 8.88178e-18 -8.88178e-18 0.0166667 1.77636e-18 -1.77636e-18 0.0333333 1.02141e-17 -0.0166667 -0.0333333 1.24345e-17 -0.0166667 -0.0166667 3.55271e-18 -0.0166667 -1.77636e-18 8.88178e-18 -0.0166667 0.0166667 3.55271e-18 -0.0166667 0.0333333 5.77316e-18 -0.0333333 -0.0333333 4.44089e-18 -0.0333333 -0.0166667 1.77636e-18 -0.0333333 1.77636e-18 5.32907e-18 -0.0333333 0.0166667 0 -0.0333333 0.0333333 0.0166667 0.0333333 -0.0333333 0.0166667 0.0333333 -0.0166667 0.0166667 0.0333333 -2.66454e-18 0.0166667 0.0333333 0.0166667 0.0166667 0.0333333 0.0333333 0.0166667 0.0166667 -0.0333333 0.0166667 0.0166667 -0.0166667 0.0166667 0.0166667 3.10862e-18 0.0166667 0.0166667 0.0166667 0.0166667 0.0166667 0.0333333 0.0166667 -1.24345e-17 -0.0333333 0.0166667 -1.37668e-17 -0.0166667 0.0166667 -3.55271e-18 -1.77636e-18 0.0166667 -6.21725e-18 0.0166667 0.0166667 -8.88178e-19 0.0333333 0.0166667 -0.0166667 -0.0333333 0.0166667 -0.0166667 -0.0166667 0.0166667 -0.0166667 2.66454e-18 0.0166667 -0.0166667 0.0166667 0.0166667 -0.0166667 0.0333333 0.0166667 -0.0333333 -0.0333333 0.0166667 -0.0333333 -0.0166667 0.0166667 -0.0333333 0 0.0166667 -0.0333333 0.0166667 0.0166667 -0.0333333 0.0333333 0.0333333 0.0333333 -0.0333333 0.0333333 0.0333333 -0.0166667 0.0333333 0.0333333 3.33067e-19 0.0333333 0.0333333 0.0166667 0.0333333 0.0333333 0.0333333 0.0333333 0.0166667 -0.0333333 0.0333333 0.0166667 -0.0166667 0.0333333 0.0166667 1.11022e-18 0.0333333 0.0166667 0.0166667 0.0333333 0.0166667 0.0333333 0.0333333 -4.44089e-18 -0.0333333 0.0333333 -4.21885e-18 -0.0166667 0.0333333 8.88178e-19 8.88178e-19 0.0333333 -1.33227e-18 0.0166667 0.0333333 3.55271e-18 0.0333333 0.0333333 -0.0166667 -0.0333333 0.0333333 -0.0166667 -0.0166667 0.0333333 -0.0166667 2.22045e-18 0.0333333 -0.0166667 0.0166667 0.0333333 -0.0166667 0.0333333 0.0333333 -0.0333333 -0.0333333 0.0333333 -0.0333333 -0.0166667 0.0333333 -0.0333333 2.22045e-18 0.0333333 -0.0333333 0.0166667 0.0333333 -0.0333333 0.0333333 </DataArray>
</Points>
<Cells>
<DataArray type="Int32" Name="connectivity" format="ascii">
68 22 3 23 218 188 63 193 218 188 63 193 219 189 64 194 219 189 64 194 220 190 65 195 220 190 65 195 221 191 66 196 221 191 66 196 222 192 67 197 222 192 67 197 97 42 7 43 69 68 23 24 223 218 193 198 223 218 193 198 224 219 194 199 224 219 194 199 225 220 195 200 225 220 195 200 226 221 196 201 226 221 196 201 227 222 197 202 227 222 197 202 96 97 43 44 70 69 24 25 228 223 198 203 228 223 198 203 229 224 199 204 229 224 199 204 230 225 200 205 230 225 200 205 231 226 201 206 231 226 201 206 232 227 202 207 232 227 202 207 95 96 44 45 71 70 25 26 233 228 203 208 233 228 203 208 234 229 204 209 234 229 204 209 235 230 205 210 235 230 205 210 236 231 206 211 236 231 206 211 237 232 207 212 237 232 207 212 94 95 45 46 72 71 26 27 238 233 208 213 238 233 208 213 239 234 209 214 239 234 209 214 240 235 210 215 240 235 210 215 241 236 211 216 241 236 211 216 242 237 212 217 242 237 212 217 93 94 46 47 8 72 27 0 118 238 213 48 118 238 213 48 119 239 214 49 119 239 214 49 120 240 215 50 120 240 215 50 121 241 216 51 121 241 216 51 122 242 217 52 122 242 217 52 28 93 47 4 73 21 22 68 243 183 188 218 243 183 188 218 244 184 189 219 244 184 189 219 245 185 190 220 245 185 190 220 246 186 191 221 246 186 191 221 247 187 192 222 247 187 192 222 102 41 42 97 74 73 68 69 248 243 218 223 248 243 218 223 249 244 219 224 249 244 219 224 250 245 220 225 250 245 220 225 251 246 221 226 251 246 221 226 252 247 222 227 252 247 222 227 101 102 97 96 75 74 69 70 253 248 223 228 253 248 223 228 254 249 224 229 254 249 224 229 255 250 225 230 255 250 225 230 256 251 226 231 256 251 226 231 257 252 227 232 257 252 227 232 100 101 96 95 76 75 70 71 258 253 228 233 258 253 228 233 259 254 229 234 259 254 229 234 260 255 230 235 260 255 230 235 261 256 231 236 261 256 231 236 262 257 232 237 262 257 232 237 99 100 95 94 77 76 71 72 263 258 233 238 263 258 233 238 264 259 234 239 264 259 234 239 265 260 235 240 265 260 235 240 266 261 236 241 266 261 236 241 267 262 237 242 267 262 237 242 98 99 94 93 9 77 72 8 123 263 238 118 123 263 238 118 124 264 239 119 124 264 239 119 125 265 240 120 125 265 240 120 126 266 241 121 126 266 241 121 127 267 242 122 127 267 242 122 29 98 93 28 78 20 21 73 268 178 183 243 268 178 183 243 269 179 184 244 269 179 184 244 270 180 185 245 270 180 185 245 271 181 186 246 271 181 186 246 272 182 187 247 272 182 187 247 107 40 41 102 79 78 73 74 273 268 243 248 273 268 243 248 274 269 244 249 274 269 244 249 275 270 245 250 275 270 245 250 276 271 246 251 276 271 246 251 277 272 247 252 277 272 247 252 106 107 102 101 80 79 74 75 278 273 248 253 278 273 248 253 279 274 249 254 279 274 249 254 280 275 250 255 280 275 250 255 281 276 251 256 281 276 251 256 282 277 252 257 282 277 252 257 105 106 101 100 81 80 75 76 283 278 253 258 283 278 253 258 284 279 254 259 284 279 254 259 285 280 255 260 285 280 255 260 286 281 256 261 286 281 256 261 287 282 257 262 287 282 257 262 104 105 100 99 82 81 76 77 288 283 258 263 288 283 258 263 289 284 259 264 289 284 259 264 290 285 260 265 290 285 260 265 291 286 261 266 291 286 261 266 292 287 262 267 292 287 262 267 103 104 99 98 10 82 77 9 128 288 263 123 128 288 263 123 129 289 264 124 129 289 264 124 130 290 265 125 130 290 265 125 131 291 266 126 131 291 266 126 132 292 267 127 132 292 267 127 30 103 98 29 83 19 20 78 293 173 178 268 293 173 178 268 294 174 179 269 294 174 179 269 295 175 180 270 295 175 180 270 296 176 181 271 296 176 181 271 297 177 182 272 297 177 182 272 112 39 40 107 84 83 78 79 298 293 268 273 298 293 268 273 299 294 269 274 299 294 269 274 300 295 270 275 300 295 270 275 301 296 271 276 301 296 271 276 302 297 272 277 302 297 272 277 111 112 107 106 85 84 79 80 303 298 273 278 303 298 273 278 304 299 274 279 304 299 274 279 305 300 275 280 305 300 275 280 306 301 276 281 306 301 276 281 307 302 277 282 307 302 277 282 110 111 106 105 86 85 80 81 308 303 278 283 308 303 278 283 309 304 279 284 309 304 279 284 310 305 280 285 310 305 280 285 311 306 281 286 311 306 281 286 312 307 282 287 312 307 282 287 109 110 105 104 87 86 81 82 313 308 283 288 313 308 283 288 314 309 284 289 314 309 284 289 315 310 285 290 315 310 285 290 316 311 286 291 316 311 286 291 317 312 287 292 317 312 287 292 108 109 104 103 11 87 82 10 133 313 288 128 133 313 288 128 134 314 289 129 134 314 289 129 135 315 290 130 135 315 290 130 136 316 291 131 136 316 291 131 137 317 292 132 137 317 292 132 31 108 103 30 88 18 19 83 318 168 173 293 318 168 173 293 319 169 174 294 319 169 174 294 320 170 175 295 320 170 175 295 321 171 176 296 321 171 176 296 322 172 177 297 322 172 177 297 117 38 39 112 89 88 83 84 323 318 293 298 323 318 293 298 324 319 294 299 324 319 294 299 325 320 295 300 325 320 295 300 326 321 296 301 326 321 296 301 327 322 297 302 327 322 297 302 116 117 112 111 90 89 84 85 328 323 298 303 328 323 298 303 329 324 299 304 329 324 299 304 330 325 300 305 330 325 300 305 331 326 301 306 331 326 301 306 332 327 302 307 332 327 302 307 115 116 111 110 91 90 85 86 333 328 303 308 333 328 303 308 334 329 304 309 334 329 304 309 335 330 305 310 335 330 305 310 336 331 306 311 336 331 306 311 337 332 307 312 337 332 307 312 114 115 110 109 92 91 86 87 338 333 308 313 338 333 308 313 339 334 309 314 339 334 309 314 340 335 310 315 340 335 310 315 341 336 311 316 341 336 311 316 342 337 312 317 342 337 312 317 113 114 109 108 12 92 87 11 138 338 313 133 138 338 313 133 139 339 314 134 139 339 314 134 140 340 315 135 140 340 315 135 141 341 316 136 141 341 316 136 142 342 317 137 142 342 317 137 32 113 108 31 17 2 18 88 163 58 168 318 163 58 168 318 164 59 169 319 164 59 169 319 165 60 170 320 165 60 170 320 166 61 171 321 166 61 171 321 167 62 172 322 167 62 172 322 37 6 38 117 16 17 88 89 158 163 318 323 158 163 318 323 159 164 319 324 159 164 319 324 160 165 320 325 160 165 320 325 161 166 321 326 161 166 321 326 162 167 322 327 162 167 322 327 36 37 117 116 15 16 89 90 153 158 323 328 153 158 323 328 154 159 324 329 154 159 324 329 155 160 325 330 155 160 325 330 156 161 326 331 156 161 326 331 157 162 327 332 157 162 327 332 35 36 116 115 14 15 90 91 148 153 328 333 148 153 328 333 149 154 329 334 149 154 329 334 150 155 330 335 150 155 330 335 151 156 331 336 151 156 331 336 152 157 332 337 152 157 332 337 34 35 115 114 13 14 91 92 143 148 333 338 143 148 333 338 144 149 334 339 144 149 334 339 145 150 335 340 145 150 335 340 146 151 336 341 146 151 336 341 147 152 337 342 147 152 337 342 33 34 114 113 1 13 92 12 53 143 338 138 53 143 338 138 54 144 339 139 54 144 339 139 55 145 340 140 55 145 340 140 56 146 341 141 56 146 341 141 57 147 342 142 57 147 342 142 5 33 113 32 </DataArray>
<DataArray type="Int32" Name="offsets" format="ascii">
8 16 24 32 40 48 56 64 72 80 88 96 104 112 120 128 136 144 152 160 168 176 184 192 200 208 216 224 232 240 248 256 264 272 280 288 296 304 312 320 328 336 344 352 360 368 376 384 392 400 408 416 424 432 440 448 456 464 472 480 488 496 504 512 520 528 536 544 552 560 568 576 584 592 600 608 616 624 632 640 648 656 664 672 680 688 696 704 712 720 728 736 744 752 760 768 776 784 792 800 808 816 824 832 840 848 856 864 872 880 888 896 904 912 920 928 936 944 952 960 968 976 984 992 1000 1008 1016 1024 1032 1040 1048 1056 1064 1072 1080 1088 1096 1104 1112 1120 1128 1136 1144 1152 1160 1168 1176 1184 1192 1200 1208 1216 1224 1232 1240 1248 1256 1264 1272 1280 1288 1296 1304 1312 1320 1328 1336 1344 1352 1360 1368 1376 1384 1392 1400 1408 1416 1424 1432 1440 1448 1456 1464 1472 1480 1488 1496 1504 1512 1520 1528 1536 1544 1552 1560 1568 1576 1584 1592 1600 1608 1616 1624 1632 1640 1648 1656 1664 1672 1680 1688 1696 1704 1712 1720 1728 </DataArray>
<DataArray type="UInt8" Name="types" format="ascii">
12 12 12 12 12 12 12 12 12 12 12 12 12 12 12 12 12 12 12 12 12 12 12 12 12 12 12 12 12 12 12 12 12 12 12 12 12 12 12 12 12 12 12 12 12 12 12 12 12 12 12 12 12 12 12 12 12 12 12 12 12 12 12 12 12 12 12 12 12 12 12 12 12 12 12 12 12 12 12 12 12 12 12 12 12 12 12 12 12 12 12 12 12 12 12 12 12 12 12 12 12 12 12 12 12 12 12 12 12 12 12 12 12 12 12 12 12 12 12 12 12 12 12 12 12 12 12 12 12 12 12 12 12 12 12 12 12 12 12 12 12 12 12 12 12 12 12 12 12 12 12 12 12 12 12 12 12 12 12 12 12 12 12 12 12 12 12 12 12 12 12 12 12 12 12 12 12 12 12 12 12 12 12 12 12 12 12 12 12 12 12 12 12 12 12 12 12 12 12 12 12 12 12 12 12 12 12 12 12 12 12 12 12 12 12 12 </DataArray>
</Cells>
<CellData Scalars="scalars">
<DataArray type="Float32" Name="number_density" format="ascii">
7.776e+15 7.992e+15 9.936e+15 7.344e+15 9.504e+15 9.72e+15 7.776e+15 8.64e+15 8.64e+15 1.08e+16 7.776e+15 1.0584e+16 9.504e+15 1.08e+16 6.48e+15 6.264e+15 8.424e+15 1.2744e+16 8.424e+15 1.1232e+16 7.56e+15 9.072e+15 8.64e+15 9.072e+15 1.0152e+16 6.696e+15 1.1232e+16 1.08e+16 9.936e+15 1.1016e+16 1.0152e+16 8.64e+15 8.856e+15 9.288e+15 9.072e+15 6.912e+15 8.856e+15 8.424e+15 9.504e+15 1.0152e+16 9.936e+15 9.072e+15 7.344e+15 8.208e+15 1.08e+16 1.1448e+16 1.1016e+16 1.1232e+16 7.776e+15 1.1448e+16 9.288e+15 1.3392e+16 1.2528e+16 8.856e+15 9.72e+15 1.1016e+16 1.1232e+16 1.2744e+16 1.2528e+16 8.64e+15 8.208e+15 9.288e+15 1.1448e+16 1.0584e+16 7.992e+15 1.0368e+16 1.1232e+16 8.424e+15 1.1448e+16 9.936e+15 9.936e+15 1.0368e+16 7.344e+15 9.72e+15 1.1016e+16 1.08e+16 1.0368e+16 9.504e+15 7.992e+15 8.856e+15 1.1016e+16 1.2528e+16 1.1664e+16 9.936e+15 7.344e+15 1.0368e+16 1.5336e+16 1.404e+16 1.5552e+16 1.2312e+16 7.344e+15 1.0152e+16 1.62e+16 1.404e+16 1.4688e+16 9.504e+15 7.128e+15 7.776e+15 1.0368e+16 9.936e+15 1.2312e+16 8.856e+15 7.776e+15 9.936e+15 8.64e+15 8.208e+15 9.72e+15 1.0584e+16 9.72e+15 9.936e+15 9.504e+15 9.936e+15 1.1016e+16 1.2312e+16 8.64e+15 1.08e+16 1.08e+16 1.2312e+16 1.188e+16 1.296e+16 7.344e+15 1.1448e+16 1.4688e+16 1.1448e+16 1.5768e+16 1.1016e+16 7.776e+15 7.344e+15 1.2312e+16 1.4472e+16 1.0584e+16 1.1664e+16 1.1664e+16 9.72e+15 9.72e+15 1.296e+16 1.0152e+16 1.0584e+16 6.912e+15 9.72e+15 7.56e+15 9.72e+15 7.56e+15 9.288e+15 8.856e+15 9.72e+15 9.72e+15 1.2096e+16 8.856e+15 9.936e+15 9.288e+15 1.2096e+16 1.0368e+16 1.08e+16 1.296e+16 9.504e+15 9.72e+15 1.2744e+16 1.1232e+16 1.1448e+16 1.0152e+16 1.0152e+16 1.0152e+16 7.776e+15 1.3608e+16 1.1016e+16 1.1664e+16 1.0584e+16 8.64e+15 1.1016e+16 7.776e+15 8.208e+15 8.64e+15 9.72e+15 8.424e+15 7.56e+15 8.208e+15 9.288e+15 9.936e+15 1.0152e+16 9.72e+15 9.288e+15 1.08e+16 9.504e+15 9.288e+15 1.1448e+16 7.992e+15 1.1232e+16 1.0152e+16 9.72e+15 9.936e+15 9.288e+15 9.288e+15 8.424e+15 9.072e+15 1.2096e+16 9.504e+15 1.0584e+16 9.72e+15 5.4e+15 9.504e+15 9.936e+15 8.208e+15 1.08e+16 9.72e+15 9.072e+15 9.504e+15 8.424e+15 9.936e+15 1.1016e+16 1.08e+16 6.696e+15 9.72e+15 8.208e+15 9.72e+15 1.2312e+16 </DataArray>
<DataArray type="Float32" Name="potential" format="ascii">
0 0 0 0 0 0 0 0 0 0 0 0 0 0 0 0 0 0 0 0 0 0 0 0 0 0 0 0 0 0 0 0 0 0 0 0 0 0 0 0 0 0 0 0 0 0 0 0 0 0 0 0 0 0 0 0 0 0 0 0 0 0 0 0 0 0 0 0 0 0 0 0 0 0 0 0 0 0 0 0 0 0 0 0 0 0 0 0 0 0 0 0 0 0 0 0 0 0 0 0 0 0 0 0 0 0 0 0 0 0 0 0 0 0 0 0 0 0 0 0 0 0 0 0 0 0 0 0 0 0 0 0 0 0 0 0 0 0 0 0 0 0 0 0 0 0 0 0 0 0 0 0 0 0 0 0 0 0 0 0 0 0 0 0 0 0 0 0 0 0 0 0 0 0 0 0 0 0 0 0 0 0 0 0 0 0 0 0 0 0 0 0 0 0 0 0 0 0 0 0 0 0 0 0 0 0 0 0 0 0 0 0 0 0 0 0 </DataArray>
<DataArray type="Float32" Name="temperature" format="ascii">
244.623 326.863 274.401 287.029 344.667 294.794 237.529 307.068 372.094 383.383 342.181 355.315 263.055 314.964 286.865 291.218 328.086 331.489 274.589 334.687 302.035 407.045 278.739 276.671 200.131 280.918 263.146 228.795 311.398 338.158 305.67 325.656 290.991 307.962 268.314 307.041 226.989 264.878 333.394 300.541 276.18 296.504 306.734 340.099 338.452 328.728 287.085 293.076 291.634 298.537 383.099 309.318 370.573 255.173 288.31 291.011 309.609 366.316 297.049 295.629 408.955 256.561 299.123 233.442 249.24 293.585 325.193 231.141 278.64 345.287 236.557 274.611 269.278 266.391 309.437 323.56 280.037 342.401 246.401 268.179 380.967 370.84 310.673 271.46 336.873 338.44 363.038 428.795 357.159 314.977 284.227 354.105 342.819 395.993 322.54 333.811 231.467 295.826 346.029 386.866 284.665 272.072 387.363 299.207 290.422 391.793 337.559 365.02 239.167 250.208 377.032 312.143 330.803 250.897 223.115 344.674 333.527 342.228 359.102 306.834 247.035 305.404 428.303 441.411 399.264 291.35 301.608 292.955 389.653 436.883 442.909 301.429 276.757 399.106 333.094 279.121 308.797 318.428 255.747 317.41 308.191 301.28 291.774 226.69 310.218 312.975 336.516 275.498 280.034 253.173 273.879 271.041 287.091 356.003 327.323 303.437 276.688 312.261 350.238 316.153 279.496 310.716 327.229 290.959 285.534 388.189 299.456 269.301 338.015 308.011 329.768 218.261 354.567 275.705 264.022 249.552 269.789 261.068 274.961 291.353 283.142 294.042 330.369 285.428 291.464 333.226 308.56 331.384 300.874 323.598 270.2 290.936 265.663 295.869 231.145 295.041 297.45 294.807 245.693 201.176 313.764 340.446 238.56 266.698 273.597 266.438 269.11 286.495 264.581 309.449 284.877 257.358 289.222 329.198 255.398 219.545 </DataArray>
<DataArray type="Float32" Name="velocity" format="ascii">
78.1349 167.042 151.925 163.247 105.003 65.3139 120.199 176.533 318.269 239.551 168.774 99.1393 231.336 243.363 360.038 221.771 158.67 43.7579 164.888 282.736 308.81 229.747 114.875 110.792 92.2294 113.354 158.332 192.775 146.576 122.497 84.2523 110.551 168.532 122.926 164.272 123.579 146.376 289.261 216.565 216.658 75.1285 40.3542 165.812 336.568 325.282 283.563 193.782 89.5427 256.705 400.362 505.628 391.417 194.54 128.63 268.051 342.616 475.589 398.005 210.895 121.43 165.069 316.907 333.043 322.912 190.812 113.432 68.0424 149.016 231.48 185.992 157.628 68.9381 211.123 249.453 310.051 279.421 56.0945 113.63 325.885 377.282 441.258 313.787 125.109 44.2216 373.544 562.987 694.774 358.676 142.527 141.186 292.856 526.475 632.026 455.286 238.9 151.682 234.653 392.438 449.963 389.727 197.775 190.966 104.592 284.418 241.273 146.027 141.821 53.4218 190.294 247.787 294.653 270.146 124.716 54.6192 241 409.681 534.954 254.335 60.916 44.08 404.121 555.694 649.084 382.532 107.727 94.5832 405.182 527.761 594.317 536.736 218.486 182.093 308.494 472.739 479.638 439.462 232.781 159.441 160.381 240.313 325.667 302.348 160.577 120.868 130.873 201.94 254.979 120 27.8919 66.599 163.366 313.185 300.228 242.664 162.661 78.554 270.381 391.887 441.142 281.267 109.266 105.304 272.248 380.643 467.271 424.466 266.371 95.7954 100.068 350.866 412.141 336.518 229.005 192.129 123.311 222.061 247.411 217.78 112.096 138.964 58.7855 83.5301 137.392 87.0903 74.847 70.7684 117.832 208.848 196.573 136.429 105.268 59.7628 106.946 261.907 275.04 229.236 166.64 111.484 223.694 339.602 314.904 274.114 179.818 60.8085 110.606 212.089 267.003 206.206 131.364 78.8962 59.4786 131.425 220.516 123.237 54.9493 129.294 </DataArray>
<DataArray type="Float32" Name="E_field" format="ascii">
0 0 0 0 0 0 0 0 0 0 0 0 0 0 0 0 0 0 0 0 0 0 0 0 0 0 0 0 0 0 0 0 0 0 0 0 0 0 0 0 0 0 0 0 0 0 0 0 0 0 0 0 0 0 0 0 0 0 0 0 0 0 0 0 0 0 0 0 0 0 0 0 0 0 0 0 0 0 0 0 0 0 0 0 0 0 0 0 0 0 0 0 0 0 0 0 0 0 0 0 0 0 0 0 0 0 0 0 0 0 0 0 0 0 0 0 0 0 0 0 0 0 0 0 0 0 0 0 0 0 0 0 0 0 0 0 0 0 0 0 0 0 0 0 0 0 0 0 0 0 0 0 0 0 0 0 0 0 0 0 0 0 0 0 0 0 0 0 0 0 0 0 0 0 0 0 0 0 0 0 0 0 0 0 0 0 0 0 0 0 0 0 0 0 0 0 0 0 0 0 0 0 0 0 0 0 0 0 0 0 0 0 0 0 0 0 </DataArray>
</CellData>
<PointData Scalars="number_density">
<DataArray type="Float32" Name="number_density" format="ascii">
1.0152e+16 1.08e+16 9.72e+15 7.776e+15 6.912e+15 1.2312e+16 1.1448e+16 9.72e+15 1.0692e+16 9.504e+15 7.344e+15 7.668e+15 9.612e+15 1.026e+16 9.72e+15 9.504e+15 8.64e+15 8.856e+15 9.288e+15 9.288e+15 8.532e+15 8.1e+15 8.316e+15 7.776e+15 8.64e+15 8.964e+15 9.288e+15 1.0152e+16 8.64e+15 1.0476e+16 9.936e+15 9.72e+15 1.1232e+16 1.1664e+16 1.0908e+16 1.0692e+16 9.936e+15 1.0368e+16 1.0692e+16 1.1124e+16 1.0908e+16 9.288e+15 9.396e+15 1.0152e+16 1.1664e+16 1.0908e+16 1.0044e+16 8.964e+15 9.396e+15 8.748e+15 9.072e+15 9.18e+15 7.992e+15 8.748e+15 8.208e+15 8.964e+15 8.964e+15 1.1016e+16 9.504e+15 1.0044e+16 1.0152e+16 9.396e+15 1.0368e+16 7.884e+15 8.964e+15 8.64e+15 8.424e+15 9.612e+15 7.938e+15 8.1e+15 8.856e+15 9.126e+15 9.936e+15 7.884e+15 7.614e+15 8.046e+15 8.1e+15 8.586e+15 8.424e+15 7.83e+15 7.452e+15 8.478e+15 8.37e+15 9.126e+15 8.748e+15 8.748e+15 9.558e+15 8.91e+15 8.964e+15 9.072e+15 9.72e+15 9.558e+15 9.396e+15 9.666e+15 9.774e+15 9.828e+15 1.0854e+16 1.0152e+16 1.0044e+16 9.342e+15 9.828e+15 1.0584e+16 9.936e+15 9.828e+15 1.0152e+16 1.1124e+16 1.1556e+16 1.1178e+16 9.936e+15 1.0638e+16 1.0854e+16 1.0908e+16 1.1178e+16 1.08e+16 1.053e+16 1.053e+16 9.882e+15 1.0044e+16 9.612e+15 9.342e+15 9.882e+15 9.558e+15 9.072e+15 9.342e+15 9.612e+15 9.558e+15 9.45e+15 1.0152e+16 8.586e+15 8.964e+15 8.532e+15 8.802e+15 9.288e+15 8.154e+15 8.262e+15 8.694e+15 9.126e+15 9.234e+15 8.37e+15 8.046e+15 8.856e+15 9.288e+15 1.053e+16 9.072e+15 8.748e+15 8.964e+15 9.072e+15 1.0746e+16 8.478e+15 8.37e+15 9.342e+15 9.126e+15 9.99e+15 8.208e+15 8.1e+15 1.0152e+16 9.936e+15 9.774e+15 9.234e+15 9.72e+15 1.026e+16 1.0314e+16 9.828e+15 9.558e+15 1.0368e+16 1.0044e+16 9.612e+15 9.99e+15 9.396e+15 9.882e+15 1.053e+16 9.936e+15 9.882e+15 9.558e+15 9.72e+15 1.0314e+16 1.0476e+16 1.053e+16 9.18e+15 1.0044e+16 1.0314e+16 1.053e+16 1.08e+16 8.586e+15 9.666e+15 1.0368e+16 1.0314e+16 9.72e+15 8.262e+15 8.964e+15 9.234e+15 9.234e+15 9.558e+15 8.046e+15 8.802e+15 9.18e+15 8.856e+15 9.396e+15 9.18e+15 8.64e+15 8.046e+15 8.316e+15 9.882e+15 9.99e+15 9.018e+15 7.344e+15 8.1e+15 9.72e+15 9.126e+15 9.18e+15 9.666e+15 9.612e+15 9.666e+15 8.91e+15 8.856e+15 1.0044e+16 9.774e+15 9.234e+15 8.127e+15 9.018e+15 9.828e+15 9.747e+15 9.855e+15 8.937e+15 9.288e+15 9.639e+15 1.0206e+16 1.0395e+16 9.99e+15 9.882e+15 9.504e+15 1.0449e+16 1.0179e+16 9.342e+15 9.963e+15 1.0584e+16 1.0287e+16 9.774e+15 9.099e+15 9.504e+15 1.0449e+16 9.693e+15 9.45e+15 8.343e+15 9.693e+15 1.0908e+16 1.0989e+16 1.0341e+16 8.667e+15 1.0665e+16 1.2231e+16 1.2771e+16 1.1637e+16 9.396e+15 1.188e+16 1.3284e+16 1.3689e+16 1.1826e+16 8.829e+15 1.0935e+16 1.2069e+16 1.1853e+16 1.0611e+16 8.721e+15 9.666e+15 1.0071e+16 9.828e+15 1.0017e+16 9.126e+15 1.0206e+16 1.0989e+16 1.1313e+16 1.1205e+16 9.099e+15 1.1664e+16 1.2771e+16 1.3149e+16 1.2636e+16 8.64e+15 1.2231e+16 1.4067e+16 1.3824e+16 1.2636e+16 8.613e+15 1.0449e+16 1.2501e+16 1.2393e+16 1.1043e+16 8.829e+15 9.18e+15 9.639e+15 1.0071e+16 9.882e+15 9.882e+15 1.0368e+16 1.0692e+16 1.1232e+16 1.1178e+16 1.026e+16 1.1772e+16 1.1637e+16 1.2096e+16 1.1799e+16 9.288e+15 1.1394e+16 1.2528e+16 1.2069e+16 1.1448e+16 9.261e+15 9.909e+15 1.1259e+16 1.0962e+16 1.0449e+16 9.207e+15 8.91e+15 9.18e+15 9.558e+15 9.504e+15 9.774e+15 1.0422e+16 1.0395e+16 1.0395e+16 1.0152e+16 1.0098e+16 1.0665e+16 1.0611e+16 1.0827e+16 1.026e+16 9.153e+15 9.72e+15 1.0989e+16 1.0503e+16 1.0206e+16 8.937e+15 9.207e+15 9.747e+15 9.504e+15 1.0071e+16 8.991e+15 8.694e+15 8.667e+15 9.045e+15 1.0179e+16 </DataArray>
<DataArray type="Float32" Name="potential" format="ascii">
0 0 0 0 0 0 0 0 0 0 0 0 0 0 0 0 0 0 0 0 0 0 0 0 0 0 0 0 0 0 0 0 0 0 0 0 0 0 0 0 0 0 0 0 0 0 0 0 0 0 0 0 0 0 0 0 0 0 0 0 0 0 0 0 0 0 0 0 0 0 0 0 0 0 0 0 0 0 0 0 0 0 0 0 0 0 0 0 0 0 0 0 0 0 0 0 0 0 0 0 0 0 0 0 0 0 0 0 0 0 0 0 0 0 0 0 0 0 0 0 0 0 0 0 0 0 0 0 0 0 0 0 0 0 0 0 0 0 0 0 0 0 0 0 0 0 0 0 0 0 0 0 0 0 0 0 0 0 0 0 0 0 0 0 0 0 0 0 0 0 0 0 0 0 0 0 0 0 0 0 0 0 0 0 0 0 0 0 0 0 0 0 0 0 0 0 0 0 0 0 0 0 0 0 0 0 0 0 0 0 0 0 0 0 0 0 0 0 0 0 0 0 0 0 0 0 0 0 0 0 0 0 0 0 0 0 0 0 0 0 0 0 0 0 0 0 0 0 0 0 0 0 0 0 0 0 0 0 0 0 0 0 0 0 0 0 0 0 0 0 0 0 0 0 0 0 0 0 0 0 0 0 0 0 0 0 0 0 0 0 0 0 0 0 0 0 0 0 0 0 0 0 0 0 0 0 0 0 0 0 0 0 0 0 0 0 0 0 0 0 0 0 0 0 0 0 0 0 0 0 0 0 0 0 0 0 0 0 0 0 0 0 0 </DataArray>
<DataArray type="Float32" Name="temperature" format="ascii">