<VTKFile type="UnstructuredGrid" version="0.1" byte_order="LittleEndian">
<UnstructuredGrid>
<Piece NumberOfPoints="343" NumberOfCells="216">
<Points>
<DataArray type="Float32" NumberOfComponents="3" format="ascii">
-0.05 -0.05 -0.05 0.05 -0.05 -0.05 0.05 0.05 -0.05 -0.05 0.05 -0.05 -0.05 -0.05 0.05 0.05 -0.05 0.05 0.05 0.05 0.05 -0.05 0.05 0.05 -0.0333333 -0.05 -0.05 -0.0166667 -0.05 -0.05 0 -0.05 -0.05 0.0166667 -0.05 -0.05 0.0333333 -0.05 -0.05 0.05 -0.0333333 -0.05 0.05 -0.0166667 -0.05 0.05 0 -0.05 0.05 0.0166667 -0.05 0.05 0.0333333 -0.05 0.0333333 0.05 -0.05 0.0166667 0.05 -0.05 0 0.05 -0.05 -0.0166667 0.05 -0.05 -0.0333333 0.05 -0.05 -0.05 0.0333333 -0.05 -0.05 0.0166667 -0.05 -0.05 0 -0.05 -0.05 -0.0166667 -0.05 -0.05 -0.0333333 -0.05 -0.0333333 -0.05 0.05 -0.0166667 -0.05 0.05 0 -0.05 0.05 0.0166667 -0.05 0.05 0.0333333 -0.05 0.05 0.05 -0.0333333 0.05 0.05 -0.0166667 0.05 0.05 0 0.05 0.05 0.0166667 0.05 0.05 0.0333333 0.05 0.0333333 0.05 0.05 0.0166667 0.05 0.05 0 0.05 0.05 -0.0166667 0.05 0.05 -0.0333333 0.05 0.05 -0.05 0.0333333 0.05 -0.05 0.0166667 0.05 -0.05 0 0.05 -0.05 -0.0166667 0.05 -0.05 -0.0333333 0.05 -0.05 -0.05 -0.0333333 -0.05 -0.05 -0.0166667 -0.05 -0.05 0 -0.05 -0.05 0.0166667 -0.05 -0.05 0.0333333 0.05 -0.05 -0.0333333 0.05 -0.05 -0.0166667 0.05 -0.05 0 0.05 -0.05 0.0166667 0.05 -0.05 0.0333333 0.05 0.05 -0.0333333 0.05 0.05 -0.0166667 0.05 0.05 0 0.05 0.05 0.0166667 0.05 0.05 0.0333333 -0.05 0.05 -0.0333333 -0.05 0.05 -0.0166667 -0.05 0.05 0 -0.05 0.05 0.0166667 -0.05 0.05 0.0333333 -0.0333333 0.0333333 -0.05 -0.0333333 0.0166667 -0.05 -0.0333333 -3.55271e-18 -0.05 -0.0333333 -0.0166667 -0.05 -0.0333333 -0.0333333 -0.05 -0.0166667 0.0333333 -0.05 -0.0166667 0.0166667 -0.05 -0.0166667 -7.10543e-18 -0.05 -0.0166667 -0.0166667 -0.05 -0.0166667 -0.0333333 -0.05 1.77636e-18 0.0333333 -0.05 5.32907e-18 0.0166667 -0.05 3.55271e-18 -1.77636e-18 -0.05 7.10543e-18 -0.0166667 -0.05 3.55271e-18 -0.0333333 -0.05 0.0166667 0.0333333 -0.05 0.0166667 0.0166667 -0.05 0.0166667 -7.10543e-18 -0.05 0.0166667 -0.0166667 -0.05 0.0166667 -0.0333333 -0.05 0.0333333 0.0333333 -0.05 0.0333333 0.0166667 -0.05 0.0333333 -1.77636e-18 -0.05 0.0333333 -0.0166667 -0.05 0.0333333 -0.0333333 -0.05 -0.0333333 -0.0333333 0.05 -0.0333333 -0.0166667 0.05 -0.0333333 0 0.05 -0.0333333 0.0166667 0.05 -0.0333333 0.0333333 0.05 -0.0166667 -0.0333333 0.05 -0.0166667 -0.0166667 0.05 -0.0166667 0 0.05 -0.0166667 0.0166667 0.05 -0.0166667 0.0333333 0.05 0 -0.0333333 0.05 0 -0.0166667 0.05 0 0 0.05 0 0.0166667 0.05 0 0.0333333 0.05 0.0166667 -0.0333333 0.05 0.0166667 -0.0166667 0.05 0.0166667 0 0.05 0.0166667 0.0166667 0.05 0.0166667 0.0333333 0.05 0.0333333 -0.0333333 0.05 0.0333333 -0.0166667 0.05 0.0333333 1.77636e-18 0.05 0.0333333 0.0166667 0.05 0.0333333 0.0333333 0.05 -0.0333333 -0.05 -0.0333333 -0.0333333 -0.05 -0.0166667 -0.0333333 -0.05 0 -0.0333333 -0.05 0.0166667 -0.0333333 -0.05 0.0333333 -0.0166667 -0.05 -0.0333333 -0.0166667 -0.05 -0.0166667 -0.0166667 -0.05 0 -0.0166667 -0.05 0.0166667 -0.0166667 -0.05 0.0333333 0 -0.05 -0.0333333 0 -0.05 -0.0166667 0 -0.05 0 0 -0.05 0.0166667 0 -0.05 0.0333333 0.0166667 -0.05 -0.0333333 0.0166667 -0.05 -0.0166667 0.0166667 -0.05 0 0.0166667 -0.05 0.0166667 0.0166667 -0.05 0.0333333 0.0333333 -0.05 -0.0333333 0.0333333 -0.05 -0.0166667 0.0333333 -0.05 1.77636e-18 0.0333333 -0.05 0.0166667 0.0333333 -0.05 0.0333333 0.05 -0.0333333 -0.0333333 0.05 -0.0333333 -0.0166667 0.05 -0.0333333 0 0.05 -0.0333333 0.0166667 0.05 -0.0333333 0.0333333 0.05 -0.0166667 -0.0333333 0.05 -0.0166667 -0.0166667 0.05 -0.0166667 0 0.05 -0.0166667 0.0166667 0.05 -0.0166667 0.0333333 0.05 0 -0.0333333 0.05 0 -0.0166667 0.05 0 0 0.05 0 0.0166667 0.05 0 0.0333333 0.05 0.0166667 -0.0333333 0.05 0.0166667 -0.0166667 0.05 0.0166667 0 0.05 0.0166667 0.0166667 0.05 0.0166667 0.0333333 0.05 0.0333333 -0.0333333 0.05 0.0333333 -0.0166667 0.05 0.0333333 1.77636e-18 0.05 0.0333333 0.0166667 0.05 0.0333333 0.0333333 0.0333333 0.05 -0.0333333 0.0333333 0.05 -0.0166667 0.0333333 0.05 0 0.0333333 0.05 0.0166667 0.0333333 0.05 0.0333333 0.0166667 0.05 -0.0333333 0.0166667 0.05 -0.0166667 0.0166667 0.05 0 0.0166667 0.05 0.0166667 0.0166667 0.05 0.0333333 0 0.05 -0.0333333 0 0.05 -0.0166667 0 0.05 0 0 0.05 0.0166667 0 0.05 0.0333333 -0.0166667 0.05 -0.0333333 -0.0166667 0.05 -0.0166667 -0.0166667 0.05 0 -0.0166667 0.05 0.0166667 -0.0166667 0.05 0.0333333 -0.0333333 0.05 -0.0333333 -0.0333333 0.05 -0.0166667 -0.0333333 0.05 1.77636e-18 -0.0333333 0.05 0.0166667 -0.0333333 0.05 0.0333333 -0.05 0.0333333 -0.0333333 -0.05 0.0333333 -0.0166667 -0.05 0.0333333 0 -0.05 0.0333333 0.0166667 -0.05 0.0333333 0.0333333 -0.05 0.0166667 -0.0333333 -0.05 0.0166667 -0.0166667 -0.05 0.0166667 0 -0.05 0.0166667 0.0166667 -0.05 0.0166667 0.0333333 -0.05 0 -0.0333333 -0.05 0 -0.0166667 -0.05 0 0 -0.05 0 0.0166667 -0.05 0 0.0333333 -0.05 -0.0166667 -0.0333333 -0.05 -0.0166667 -0.0166667 -0.05 -0.0166667 0 -0.05 -0.0166667 0.0166667 -0.05 -0.0166667 0.0333333 -0.05 -0.0333333 -0.0333333 -0.05 -0.0333333 -0.0166667 -0.05 -0.0333333 1.77636e-18 -0.05 -0.0333333 0.0166667 -0.05 -0.0333333 0.0333333 -0.0333333 0.0333333 -0.0333333 -0.0333333 0.0333333 -0.0166667 -0.0333333 0.0333333 4.44089e-19 -0.0333333 0.0333333 0.0166667 -0.0333333 0.0333333 0.0333333 -0.0333333 0.0166667 -0.0333333 -0.0333333 0.0166667 -0.0166667 -0.0333333 0.0166667 -4.44089e-18 -0.0333333 0.0166667 0.0166667 -0.0333333 0.0166667 0.0333333 -0.0333333 -6.66134e-18 -0.0333333 -0.0333333 -9.76996e-18 -0.0166667 -0.0333333 -1.77636e-18 -1.77636e-18 -0.0333333 -1.77636e-18 0.0166667 -0.0333333 3.55271e-18 0.0333333 -0.0333333 -0.0166667 -0.0333333 -0.0333333 -0.0166667 -0.0166667 -0.0333333 -0.0166667 1.77636e-18 -0.0333333 -0.0166667 0.0166667 -0.0333333 -0.0166667 0.0333333 -0.0333333 -0.0333333 -0.0333333 -0.0333333 -0.0333333 -0.0166667 -0.0333333 -0.0333333 0 -0.0333333 -0.0333333 0.0166667 -0.0333333 -0.0333333 0.0333333 -0.0166667 0.0333333 -0.0333333 -0.0166667 0.0333333 -0.0166667 -0.0166667 0.0333333 2.66454e-18 -0.0166667 0.0333333 0.0166667 -0.0166667 0.0333333 0.0333333 -0.0166667 0.0166667 -0.0333333 -0.0166667 0.0166667 -0.0166667 -0.0166667 0.0166667 -1.77636e-18 -0.0166667 0.0166667 0.0166667 -0.0166667 0.0166667 0.0333333 -0.0166667 -1.06581e-17 -0.0333333 -0.0166667 -1.15463e-17 -0.0166667 -0.0166667 -3.55271e-18 0 -0.0166667 -8.88178e-18 0.0166667 -0.0166667 -1.77636e-18 0.0333333 -0.0166667 -0.0166667 -0.0333333 -0.0166667 -0.0166667 -0.0166667 -0.0166667 -0.0166667 3.55271e-18 -0.0166667 -0.0166667 0.0166667 -0.0166667 -0.0166667 0.0333333 -0.0166667 -0.0333333 -0.0333333 -0.0166667 -0.0333333 -0.0166667 -0.0166667 -0.0333333 0 -0.0166667 -0.0333333 0.0166667 -0.0166667 -0.0333333 0.0333333 3.44169e-18 0.0333333 -0.0333333 1.02141e-17 0.0333333 -0.0166667 2.66454e-18 0.0333333 -8.88178e-19 6.21725e-18 0.0333333 0.0166667 1.33227e-18 0.0333333 0.0333333 7.99361e-18 0.0166667 -0.0333333 8.43769e-18 0.0166667 -0.0166667 8.88178e-19 0.0166667 8.88178e-19 7.99361e-18 0.0166667 0.0166667 3.55271e-18 0.0166667 0.0333333 3.55271e-18 -1.77636e-18 -0.0333333 9.76996e-18 -9.76996e-18 -0.0166667 0 -8.88178e-19 -8.88178e-19 8.88178e-18 -8.88178e-18 0.0166667 1.77636e-18 -1.77636e-18 0.0333333 1.02141e-17 -0.0166667 -0.0333333 1.24345e-17 -0.0166667 -0.0166667 3.55271e-18 -0.0166667 -1.77636e-18 8.88178e-18 -0.0166667 0.0166667 3.55271e-18 -0.0166667 0.0333333 5.77316e-18 -0.0333333 -0.0333333 4.44089e-18 -0.0333333 -0.0166667 1.77636e-18 -0.0333333 1.77636e-18 5.32907e-18 -0.0333333 0.0166667 0 -0.0333333 0.0333333 0.0166667 0.0333333 -0.0333333 0.0166667 0.0333333 -0.0166667 0.0166667 0.0333333 -2.66454e-18 0.0166667 0.0333333 0.0166667 0.0166667 0.0333333 0.0333333 0.0166667 0.0166667 -0.0333333 0.0166667 0.0166667 -0.0166667 0.0166667 0.0166667 3.10862e-18 0.0166667 0.0166667 0.0166667 0.0166667 0.0166667 0.0333333 0.0166667 -1.24345e-17 -0.0333333 0.0166667 -1.37668e-17 -0.0166667 0.0166667 -3.55271e-18 -1.77636e-18 0.0166667 -6.21725e-18 0.0166667 0.0166667 -8.88178e-19 0.0333333 0.0166667 -0.0166667 -0.0333333 0.0166667 -0.0166667 -0.0166667 0.0166667 -0.0166667 2.66454e-18 0.0166667 -0.0166667 0.0166667 0.0166667 -0.0166667 0.0333333 0.0166667 -0.0333333 -0.0333333 0.0166667 -0.0333333 -0.0166667 0.0166667 -0.0333333 0 0.0166667 -0.0333333 0.0166667 0.0166667 -0.0333333 0.0333333 0.0333333 0.0333333 -0.0333333 0.0333333 0.0333333 -0.0166667 0.0333333 0.0333333 3.33067e-19 0.0333333 0.0333333 0.0166667 0.0333333 0.0333333 0.0333333 0.0333333 0.0166667 -0.0333333 0.0333333 0.0166667 -0.0166667 0.0333333 0.0166667 1.11022e-18 0.0333333 0.0166667 0.0166667 0.0333333 0.0166667 0.0333333 0.0333333 -4.44089e-18 -0.0333333 0.0333333 -4.21885e-18 -0.0166667 0.0333333 8.88178e-19 8.88178e-19 0.0333333 -1.33227e-18 0.0166667 0.0333333 3.55271e-18 0.0333333 0.0333333 -0.0166667 -0.0333333 0.0333333 -0.0166667 -0.0166667 0.0333333 -0.0166667 2.22045e-18 0.0333333 -0.0166667 0.0166667 0.0333333 -0.0166667 0.0333333 0.0333333 -0.0333333 -0.0333333 0.0333333 -0.0333333 -0.0166667 0.0333333 -0.0333333 2.22045e-18 0.0333333 -0.0333333 0.0166667 0.0333333 -0.0333333 0.0333333 </DataArray>
</Points>
<Cells>
<DataArray type="Int32" Name="connectivity" format="ascii">
68 22 3 23 218 188 63 193 218 188 63 193 219 189 64 194 219 189 64 194 220 190 65 195 220 190 65 195 221 191 66 196 221 191 66 196 222 192 67 197 222 192 67 197 97 42 7 43 69 68 23 24 223 218 193 198 223 218 193 198 224 219 194 199 224 219 194 199 225 220 195 200 225 220 195 200 226 221 196 201 226 221 196 201 227 222 197 202 227 222 197 202 96 97 43 44 70 69 24 25 228 223 198 203 228 223 198 203 229 224 199 204 229 224 199 204 230 225 200 205 230 225 200 205 231 226 201 206 231 226 201 206 232 227 202 207 232 227 202 207 95 96 44 45 71 70 25 26 233 228 203 208 233 228 203 208 234 229 204 209 234 229 204 209 235 230 205 210 235 230 205 210 236 231 206 211 236 231 206 211 237 232 207 212 237 232 207 212 94 95 45 46 72 71 26 27 238 233 208 213 238 233 208 213 239 234 209 214 239 234 209 214 240 235 210 215 240 235 210 215 241 236 211 216 241 236 211 216 242 237 212 217 242 237 212 217 93 94 46 47 8 72 27 0 118 238 213 48 118 238 213 48 119 239 214 49 119 239 214 49 120 240 215 50 120 240 215 50 121 241 216 51 121 241 216 51 122 242 217 52 122 242 217 52 28 93 47 4 73 21 22 68 243 183 188 218 243 183 188 218 244 184 189 219 244 184 189 219 245 185 190 220 245 185 190 220 246 186 191 221 246 186 191 221 247 187 192 222 247 187 192 222 102 41 42 97 74 73 68 69 248 243 218 223 248 243 218 223 249 244 219 224 249 244 219 224 250 245 220 225 250 245 220 225 251 246 221 226 251 246 221 226 252 247 222 227 252 247 222 227 101 102 97 96 75 74 69 70 253 248 223 228 253 248 223 228 254 249 224 229 254 249 224 229 255 250 225 230 255 250 225 230 256 251 226 231 256 251 226 231 257 252 227 232 257 252 227 232 100 101 96 95 76 75 70 71 258 253 228 233 258 253 228 233 259 254 229 234 259 254 229 234 260 255 230 235 260 255 230 235 261 256 231 236 261 256 231 236 262 257 232 237 262 257 232 237 99 100 95 94 77 76 71 72 263 258 233 238 263 258 233 238 264 259 234 239 264 259 234 239 265 260 235 240 265 260 235 240 266 261 236 241 266 261 236 241 267 262 237 242 267 262 237 242 98 99 94 93 9 77 72 8 123 263 238 118 123 263 238 118 124 264 239 119 124 264 239 119 125 265 240 120 125 265 240 120 126 266 241 121 126 266 241 121 127 267 242 122 127 267 242 122 29 98 93 28 78 20 21 73 268 178 183 243 268 178 183 243 269 179 184 244 269 179 184 244 270 180 185 245 270 180 185 245 271 181 186 246 271 181 186 246 272 182 187 247 272 182 187 247 107 40 41 102 79 78 73 74 273 268 243 248 273 268 243 248 274 269 244 249 274 269 244 249 275 270 245 250 275 270 245 250 276 271 246 251 276 271 246 251 277 272 247 252 277 272 247 252 106 107 102 101 80 79 74 75 278 273 248 253 278 273 248 253 279 274 249 254 279 274 249 254 280 275 250 255 280 275 250 255 281 276 251 256 281 276 251 256 282 277 252 257 282 277 252 257 105 106 101 100 81 80 75 76 283 278 253 258 283 278 253 258 284 279 254 259 284 279 254 259 285 280 255 260 285 280 255 260 286 281 256 261 286 281 256 261 287 282 257 262 287 282 257 262 104 105 100 99 82 81 76 77 288 283 258 263 288 283 258 263 289 284 259 264 289 284 259 264 290 285 260 265 290 285 260 265 291 286 261 266 291 286 261 266 292 287 262 267 292 287 262 267 103 104 99 98 10 82 77 9 128 288 263 123 128 288 263 123 129 289 264 124 129 289 264 124 130 290 265 125 130 290 265 125 131 291 266 126 131 291 266 126 132 292 267 127 132 292 267 127 30 103 98 29 83 19 20 78 293 173 178 268 293 173 178 268 294 174 179 269 294 174 179 269 295 175 180 270 295 175 180 270 296 176 181 271 296 176 181 271 297 177 182 272 297 177 182 272 112 39 40 107 84 83 78 79 298 293 268 273 298 293 268 273 299 294 269 274 299 294 269 274 300 295 270 275 300 295 270 275 301 296 271 276 301 296 271 276 302 297 272 277 302 297 272 277 111 112 107 106 85 84 79 80 303 298 273 278 303 298 273 278 304 299 274 279 304 299 274 279 305 300 275 280 305 300 275 280 306 301 276 281 306 301 276 281 307 302 277 282 307 302 277 282 110 111 106 105 86 85 80 81 308 303 278 283 308 303 278 283 309 304 279 284 309 304 279 284 310 305 280 285 310 305 280 285 311 306 281 286 311 306 281 286 312 307 282 287 312 307 282 287 109 110 105 104 87 86 81 82 313 308 283 288 313 308 283 288 314 309 284 289 314 309 284 289 315 310 285 290 315 310 285 290 316 311 286 291 316 311 286 291 317 312 287 292 317 312 287 292 108 109 104 103 11 87 82 10 133 313 288 128 133 313 288 128 134 314 289 129 134 314 289 129 135 315 290 130 135 315 290 130 136 316 291 131 136 316 291 131 137 317 292 132 137 317 292 132 31 108 103 30 88 18 19 83 318 168 173 293 318 168 173 293 319 169 174 294 319 169 174 294 320 170 175 295 320 170 175 295 321 171 176 296 321 171 176 296 322 172 177 297 322 172 177 297 117 38 39 112 89 88 83 84 323 318 293 298 323 318 293 298 324 319 294 299 324 319 294 299 325 320 295 300 325 320 295 300 326 321 296 301 326 321 296 301 327 322 297 302 327 322 297 302 116 117 112 111 90 89 84 85 328 323 298 303 328 323 298 303 329 324 299 304 329 324 299 304 330 325 300 305 330 325 300 305 331 326 301 306 331 326 301 306 332 327 302 307 332 327 302 307 115 116 111 110 91 90 85 86 333 328 303 308 333 328 303 308 334 329 304 309 334 329 304 309 335 330 305 310 335 330 305 310 336 331 306 311 336 331 306 311 337 332 307 312 337 332 307 312 114 115 110 109 92 91 86 87 338 333 308 313 338 333 308 313 339 334 309 314 339 334 309 314 340 335 310 315 340 335 310 315 341 336 311 316 341 336 311 316 342 337 312 317 342 337 312 317 113 114 109 108 12 92 87 11 138 338 313 133 138 338 313 133 139 339 314 134 139 339 314 134 140 340 315 135 140 340 315 135 141 341 316 136 141 341 316 136 142 342 317 137 142 342 317 137 32 113 108 31 17 2 18 88 163 58 168 318 163 58 168 318 164 59 169 319 164 59 169 319 165 60 170 320 165 60 170 320 166 61 171 321 166 61 171 321 167 62 172 322 167 62 172 322 37 6 38 117 16 17 88 89 158 163 318 323 158 163 318 323 159 164 319 324 159 164 319 324 160 165 320 325 160 165 320 325 161 166 321 326 161 166 321 326 162 167 322 327 162 167 322 327 36 37 117 116 15 16 89 90 153 158 323 328 153 158 323 328 154 159 324 329 154 159 324 329 155 160 325 330 155 160 325 330 156 161 326 331 156 161 326 331 157 162 327 332 157 162 327 332 35 36 116 115 14 15 90 91 148 153 328 333 148 153 328 333 149 154 329 334 149 154 329 334 150 155 330 335 150 155 330 335 151 156 331 336 151 156 331 336 152 157 332 337 152 157 332 337 34 35 115 114 13 14 91 92 143 148 333 338 143 148 333 338 144 149 334 339 144 149 334 339 145 150 335 340 145 150 335 340 146 151 336 341 146 151 336 341 147 152 337 342 147 152 337 342 33 34 114 113 1 13 92 12 53 143 338 138 53 143 338 138 54 144 339 139 54 144 339 139 55 145 340 140 55 145 340 140 56 146 341 141 56 146 341 141 57 147 342 142 57 147 342 142 5 33 113 32 </DataArray>
<DataArray type="Int32" Name="offsets" format="ascii">
8 16 24 32 40 48 56 64 72 80 88 96 104 112 120 128 136 144 152 160 168 176 184 192 200 208 216 224 232 240 248 256 264 272 280 288 296 304 312 320 328 336 344 352 360 368 376 384 392 400 408 416 424 432 440 448 456 464 472 480 488 496 504 512 520 528 536 544 552 560 568 576 584 592 600 608 616 624 632 640 648 656 664 672 680 688 696 704 712 720 728 736 744 752 760 768 776 784 792 800 808 816 824 832 840 848 856 864 872 880 888 896 904 912 920 928 936 944 952 960 968 976 984 992 1000 1008 1016 1024 1032 1040 1048 1056 1064 1072 1080 1088 1096 1104 1112 1120 1128 1136 1144 1152 1160 1168 1176 1184 1192 1200 1208 1216 1224 1232 1240 1248 1256 1264 1272 1280 1288 1296 1304 1312 1320 1328 1336 1344 1352 1360 1368 1376 1384 1392 1400 1408 1416 1424 1432 1440 1448 1456 1464 1472 1480 1488 1496 1504 1512 1520 1528 1536 1544 1552 1560 1568 1576 1584 1592 1600 1608 1616 1624 1632 1640 1648 1656 1664 1672 1680 1688 1696 1704 1712 1720 1728 </DataArray>
<DataArray type="UInt8" Name="types" format="ascii">
12 12 12 12 12 12 12 12 12 12 12 12 12 12 12 12 12 12 12 12 12 12 12 12 12 12 12 12 12 12 12 12 12 12 12 12 12 12 12 12 12 12 12 12 12 12 12 12 12 12 12 12 12 12 12 12 12 12 12 12 12 12 12 12 12 12 12 12 12 12 12 12 12 12 12 12 12 12 12 12 12 12 12 12 12 12 12 12 12 12 12 12 12 12 12 12 12 12 12 12 12 12 12 12 12 12 12 12 12 12 12 12 12 12 12 12 12 12 12 12 12 12 12 12 12 12 12 12 12 12 12 12 12 12 12 12 12 12 12 12 12 12 12 12 12 12 12 12 12 12 12 12 12 12 12 12 12 12 12 12 12 12 12 12 12 12 12 12 12 12 12 12 12 12 12 12 12 12 12 12 12 12 12 12 12 12 12 12 12 12 12 12 12 12 12 12 12 12 12 12 12 12 12 12 12 12 12 12 12 12 12 12 12 12 12 12 </DataArray>
</Cells>
<CellData Scalars="scalars">
<DataArray type="Float32" Name="number_density" format="ascii">
6.264e+15 5.4e+15 6.912e+15 7.776e+15 6.264e+15 8.856e+15 3.24e+15 9.504e+15 6.264e+15 5.184e+15 7.992e+15 7.776e+15 6.264e+15 6.696e+15 5.184e+15 4.968e+15 6.48e+15 7.992e+15 5.4e+15 7.344e+15 5.4e+15 7.128e+15 7.992e+15 8.64e+15 6.912e+15 5.4e+15 9.72e+15 9.72e+15 7.776e+15 7.128e+15 8.424e+15 6.264e+15 5.616e+15 4.968e+15 5.184e+15 6.264e+15 5.832e+15 6.912e+15 7.56e+15 8.856e+15 9.72e+15 7.56e+15 3.672e+15 6.264e+15 9.504e+15 1.6632e+16 1.62e+16 1.1448e+16 4.32e+15 6.48e+15 1.4472e+16 1.7928e+16 1.4904e+16 1.1016e+16 2.16e+15 1.0368e+16 1.3176e+16 1.3824e+16 1.3608e+16 9.072e+15 5.616e+15 8.64e+15 1.0152e+16 1.4904e+16 1.0152e+16 1.08e+16 6.264e+15 8.208e+15 7.992e+15 7.128e+15 6.912e+15 7.992e+15 3.24e+15 7.992e+15 9.288e+15 1.0368e+16 1.4904e+16 1.1232e+16 3.456e+15 7.128e+15 1.3608e+16 2.8728e+16 2.8296e+16 1.4904e+16 1.728e+15 1.0368e+16 1.404e+16 4.5792e+16 6.1992e+16 1.3392e+16 2.16e+15 8.64e+15 1.3824e+16 2.808e+16 2.6784e+16 1.2096e+16 5.4e+15 9.936e+15 1.2744e+16 1.4256e+16 1.3392e+16 1.0368e+16 3.24e+15 4.536e+15 5.4e+15 7.776e+15 7.128e+15 6.696e+15 4.32e+15 7.776e+15 8.208e+15 9.504e+15 1.0584e+16 1.3176e+16 5.4e+15 7.128e+15 1.3824e+16 2.7e+16 2.8296e+16 1.404e+16 3.456e+15 6.696e+15 1.5336e+16 4.7088e+16 5.0976e+16 1.5552e+16 2.592e+15 1.1448e+16 1.1448e+16 2.5056e+16 2.3112e+16 1.188e+16 5.4e+15 7.56e+15 8.64e+15 1.1448e+16 1.1232e+16 7.992e+15 4.752e+15 6.912e+15 5.4e+15 6.264e+15 8.424e+15 8.64e+15 4.536e+15 8.856e+15 8.856e+15 1.3176e+16 1.2744e+16 9.936e+15 6.048e+15 8.424e+15 1.3608e+16 1.5984e+16 1.4904e+16 9.936e+15 5.184e+15 8.856e+15 1.296e+16 2.0736e+16 2.052e+16 1.0584e+16 4.536e+15 1.0152e+16 1.0368e+16 1.2528e+16 1.512e+16 1.0368e+16 5.4e+15 7.992e+15 9.504e+15 6.48e+15 9.72e+15 7.992e+15 4.32e+15 6.264e+15 5.616e+15 7.992e+15 7.992e+15 9.72e+15 7.992e+15 6.912e+15 7.776e+15 8.856e+15 9.072e+15 1.0584e+16 4.32e+15 7.344e+15 7.56e+15 9.936e+15 1.0152e+16 7.344e+15 4.104e+15 8.208e+15 6.48e+15 7.344e+15 8.856e+15 9.288e+15 3.888e+15 5.4e+15 3.456e+15 5.832e+15 6.696e+15 5.832e+15 5.616e+15 4.752e+15 6.696e+15 5.184e+15 7.128e+15 7.992e+15 8.424e+15 5.832e+15 4.32e+15 6.264e+15 7.776e+15 8.856e+15 </DataArray>
<DataArray type="Float32" Name="potential" format="ascii">
0 0 0 0 0 0 0 0 0 0 0 0 0 0 0 0 0 0 0 0 0 0 0 0 0 0 0 0 0 0 0 0 0 0 0 0 0 0 0 0 0 0 0 0 0 0 0 0 0 0 0 0 0 0 0 0 0 0 0 0 0 0 0 0 0 0 0 0 0 0 0 0 0 0 0 0 0 0 0 0 0 0 0 0 0 0 0 0 0 0 0 0 0 0 0 0 0 0 0 0 0 0 0 0 0 0 0 0 0 0 0 0 0 0 0 0 0 0 0 0 0 0 0 0 0 0 0 0 0 0 0 0 0 0 0 0 0 0 0 0 0 0 0 0 0 0 0 0 0 0 0 0 0 0 0 0 0 0 0 0 0 0 0 0 0 0 0 0 0 0 0 0 0 0 0 0 0 0 0 0 0 0 0 0 0 0 0 0 0 0 0 0 0 0 0 0 0 0 0 0 0 0 0 0 0 0 0 0 0 0 0 0 0 0 0 0 </DataArray>
<DataArray type="Float32" Name="temperature" format="ascii">
225.366 341.409 296.916 313.594 305.264 264.365 118.251 236.956 307.407 408.32 380.091 343.616 206.68 300.452 492.378 635.151 364.922 238.208 232.042 284.204 333.709 408.267 419.12 270.669 243.169 201.969 288.59 321.125 262.948 228.529 214.914 294.3 197.3 243.584 239.99 234.614 182.466 252.264 322.238 389.21 273.927 314.733 210.695 274.172 369.921 583.251 439.763 332.81 226.281 371.743 542.817 638.741 534.051 317.227 325.649 296.555 402.658 532.807 556.762 399.468 353.237 336.111 379.254 487.225 366.175 257.113 236.151 324.093 283.515 247.231 261.201 264.798 290.373 274.808 307.261 369.255 439.407 370.432 198.372 312.161 548.503 817.381 794.262 378.514 292.579 470.158 616.423 1119.51 1042.36 431.79 292.834 436.193 573.328 935.09 824.896 434.91 445.694 297.916 374.515 511.675 407.293 284.218 175.407 196.851 301.097 406.41 350.702 267.747 189.744 240.169 315.057 440.902 480.61 301.502 268.973 401.553 489.385 825.245 767.341 353.562 336.256 395.089 491.113 1097.43 962.994 446.518 326.254 403.96 558.134 827.066 748.997 347.663 265.382 341.952 444.105 447.46 387.646 241.263 372.266 272.48 382.644 345.524 358.836 256.408 232.02 283.614 378.49 382.09 312.803 285.533 253.353 362.366 383.339 415.089 376.04 329.19 350.195 300.074 411.78 611.075 576.079 323.392 181.563 313.049 517.476 709.995 401.976 352.32 281.968 268.369 265.027 399.109 346.835 242.59 211.436 274.531 347.027 334.019 263.104 246.581 285.421 231.654 258.924 359.663 314.438 333.505 259.941 281.131 298.01 289.846 358.708 292.499 215.125 314.418 369.564 472.007 323.307 268.91 271.022 263.833 297.957 310.725 340.454 265.775 192.946 231.75 319.882 243.218 249.287 242.673 237.71 261.719 159.098 233.96 198.251 235.964 </DataArray>
<DataArray type="Float32" Name="velocity" format="ascii">
161.2 262.645 343.949 265.355 156.653 54.8369 285.309 392.281 572.49 433.571 177.141 128.409 300.205 517.339 583.294 478.28 273.702 166.207 354.224 461.092 561.253 488.75 353.795 265.858 197.793 351.555 407.029 420.085 235.521 232.655 131.591 190.747 296.096 219.309 197.197 183.35 248.99 426.87 519.2 443.16 308.117 167.731 392.941 643.637 676.191 592.04 455.646 196.661 502.998 838.967 951.773 834.62 480.573 275.149 563.35 713.696 917.506 765.853 469.888 350.714 308.006 568.825 643.104 565.173 448.916 279.561 190.448 333.407 380.85 409.492 226.254 167.126 406.248 631.763 707.569 595.526 295.476 71.0853 490.894 874.662 996.957 752.983 420.511 149.947 628.04 1042.45 1281.04 932.041 605.054 216.847 650.906 958.029 1164.33 1006.57 548.793 285.792 438.272 750.12 850.458 748.879 492.455 317.761 368.168 428.227 544.965 390.529 223.122 152.179 304.085 560.325 571.082 446.097 240.633 29.5505 509.376 772.197 947.92 749.491 341.261 90.6041 611.642 1026.24 1271.03 953.232 478.139 124.853 592.46 1040.58 1257 1042.86 552.362 407.167 480.227 783.375 933.304 909.07 492.595 383.14 315.302 446.456 611.992 482.821 331.526 170.285 272.89 365.64 401.019 337.137 74.4055 52.095 378.53 558.372 789.537 578.862 243.596 120.173 473.714 737.958 966.716 755.106 314.428 252.863 511.749 794.34 983.607 869.531 517.234 241.458 298.161 613.812 732.862 666.415 454.043 298.021 315.916 360.84 485.979 419.44 351.705 182.218 129.927 219.878 269.583 230.318 60.0794 115.423 155.483 409.415 469.107 361.036 177.793 72.6768 258.385 514.241 572.852 516.917 313.483 163.551 334.052 530.826 611.196 520.384 288.932 161.861 250.201 406.765 527.115 426.157 318.816 126.783 128.257 217.555 352.563 324.348 214.997 134.486 </DataArray>
<DataArray type="Float32" Name="E_field" format="ascii">
0 0 0 0 0 0 0 0 0 0 0 0 0 0 0 0 0 0 0 0 0 0 0 0 0 0 0 0 0 0 0 0 0 0 0 0 0 0 0 0 0 0 0 0 0 0 0 0 0 0 0 0 0 0 0 0 0 0 0 0 0 0 0 0 0 0 0 0 0 0 0 0 0 0 0 0 0 0 0 0 0 0 0 0 0 0 0 0 0 0 0 0 0 0 0 0 0 0 0 0 0 0 0 0 0 0 0 0 0 0 0 0 0 0 0 0 0 0 0 0 0 0 0 0 0 0 0 0 0 0 0 0 0 0 0 0 0 0 0 0 0 0 0 0 0 0 0 0 0 0 0 0 0 0 0 0 0 0 0 0 0 0 0 0 0 0 0 0 0 0 0 0 0 0 0 0 0 0 0 0 0 0 0 0 0 0 0 0 0 0 0 0 0 0 0 0 0 0 0 0 0 0 0 0 0 0 0 0 0 0 0 0 0 0 0 0 </DataArray>
</CellData>
<PointData Scalars="number_density">
<DataArray type="Float32" Name="number_density" format="ascii">
8.424e+15 8.424e+15 7.992e+15 6.264e+15 6.264e+15 8.856e+15 1.0584e+16 8.856e+15 7.344e+15 4.752e+15 3.996e+15 4.536e+15 6.372e+15 7.02e+15 4.752e+15 3.996e+15 4.212e+15 6.156e+15 6.264e+15 4.428e+15 3.78e+15 4.536e+15 6.048e+15 4.752e+15 4.752e+15 5.832e+15 6.156e+15 7.668e+15 7.128e+15 7.344e+15 7.668e+15 9.18e+15 9.288e+15 8.424e+15 6.912e+15 7.56e+15 8.316e+15 8.964e+15 1.026e+16 1.1556e+16 1.2204e+16 9.396e+15 8.208e+15 8.316e+15 7.884e+15 8.316e+15 7.884e+15 6.696e+15 7.344e+15 5.94e+15 5.292e+15 5.076e+15 5.724e+15 7.128e+15 5.076e+15 5.292e+15 7.02e+15 8.316e+15 7.452e+15 7.344e+15 8.316e+15 8.964e+15 9.828e+15 5.832e+15 6.156e+15 7.344e+15 7.02e+15 7.56e+15 4.752e+15 4.374e+15 4.536e+15 5.022e+15 6.804e+15 4.05e+15 3.294e+15 2.592e+15 3.834e+15 5.13e+15 4.104e+15 3.51e+15 2.484e+15 3.888e+15 4.698e+15 5.076e+15 5.022e+15 3.942e+15 4.482e+15 4.968e+15 5.724e+15 4.914e+15 4.428e+15 4.86e+15 5.94e+15 8.046e+15 8.91e+15 9.18e+15 9.558e+15 8.91e+15 8.964e+15 1.0584e+16 1.1394e+16 1.269e+16 1.1286e+16 8.424e+15 1.0584e+16 1.323e+16 1.4472e+16 1.3338e+16 8.586e+15 9.558e+15 1.2096e+16 1.2528e+16 1.1772e+16 8.64e+15 8.046e+15 9.018e+15 9.288e+15 9.45e+15 7.29e+15 7.02e+15 6.426e+15 6.048e+15 6.588e+15 5.562e+15 6.534e+15 7.074e+15 7.236e+15 7.182e+15 4.86e+15 5.562e+15 6.21e+15 7.398e+15 7.722e+15 5.562e+15 6.048e+15 6.318e+15 7.668e+15 8.694e+15 6.21e+15 5.508e+15 6.048e+15 7.506e+15 8.586e+15 6.156e+15 5.4e+15 5.616e+15 6.588e+15 7.938e+15 4.914e+15 5.076e+15 5.292e+15 6.21e+15 6.912e+15 5.4e+15 5.886e+15 5.778e+15 7.182e+15 7.668e+15 5.994e+15 7.398e+15 7.83e+15 9.072e+15 8.91e+15 6.642e+15 7.398e+15 8.532e+15 9.504e+15 9.288e+15 7.074e+15 8.1e+15 9.666e+15 1.0962e+16 1.0584e+16 6.372e+15 8.424e+15 9.936e+15 1.1502e+16 1.161e+16 5.832e+15 8.316e+15 9.342e+15 1.134e+16 1.2474e+16 5.994e+15 7.938e+15 9.018e+15 1.0962e+16 1.0854e+16 6.102e+15 6.696e+15 7.776e+15 8.154e+15 8.1e+15 6.102e+15 7.02e+15 6.534e+15 6.804e+15 7.722e+15 6.426e+15 6.912e+15 5.4e+15 6.156e+15 7.56e+15 6.426e+15 6.156e+15 5.67e+15 6.642e+15 7.776e+15 6.264e+15 6.966e+15 7.992e+15 8.154e+15 7.884e+15 6.75e+15 6.75e+15 7.506e+15 6.912e+15 6.588e+15 5.886e+15 7.29e+15 8.586e+15 9.828e+15 9.477e+15 5.805e+15 8.046e+15 1.0017e+16 1.1286e+16 1.0476e+16 6.129e+15 8.64e+15 1.026e+16 1.0854e+16 9.963e+15 6.48e+15 8.775e+15 1.0503e+16 1.0638e+16 9.396e+15 6.966e+15 7.749e+15 8.775e+15 8.343e+15 7.776e+15 5.562e+15 8.532e+15 1.3068e+16 1.6713e+16 1.4283e+16 5.427e+15 1.0233e+16 2.0088e+16 2.8809e+16 2.1519e+16 5.778e+15 1.1421e+16 2.0142e+16 2.7864e+16 2.0358e+16 6.615e+15 1.0935e+16 1.512e+16 1.6875e+16 1.3284e+16 6.48e+15 8.451e+15 1.0044e+16 1.0206e+16 9.18e+15 5.805e+15 9.369e+15 1.5066e+16 1.971e+16 1.6929e+16 5.67e+15 1.1016e+16 2.5677e+16 3.9771e+16 2.8431e+16 5.886e+15 1.1475e+16 2.5083e+16 3.861e+16 2.6973e+16 6.642e+15 1.053e+16 1.5687e+16 1.917e+16 1.4607e+16 5.967e+15 7.641e+15 8.991e+15 9.99e+15 9.234e+15 6.561e+15 9.585e+15 1.377e+16 1.6524e+16 1.4202e+16 6.399e+15 1.0854e+16 2.0817e+16 2.8188e+16 2.0601e+16 6.615e+15 1.0908e+16 1.944e+16 2.6892e+16 1.9764e+16 6.885e+15 9.639e+15 1.1934e+16 1.4337e+16 1.2177e+16 6.075e+15 7.236e+15 7.668e+15 8.694e+15 8.964e+15 6.804e+15 8.667e+15 1.0719e+16 1.1853e+16 1.0584e+16 6.561e+15 9.18e+15 1.1826e+16 1.3554e+16 1.1448e+16 6.291e+15 8.235e+15 9.963e+15 1.2204e+16 1.0908e+16 5.967e+15 7.29e+15 7.506e+15 8.586e+15 8.856e+15 6.075e+15 6.372e+15 6.507e+15 7.317e+15 8.397e+15 </DataArray>
<DataArray type="Float32" Name="potential" format="ascii">
0 0 0 0 0 0 0 0 0 0 0 0 0 0 0 0 0 0 0 0 0 0 0 0 0 0 0 0 0 0 0 0 0 0 0 0 0 0 0 0 0 0 0 0 0 0 0 0 0 0 0 0 0 0 0 0 0 0 0 0 0 0 0 0 0 0 0 0 0 0 0 0 0 0 0 0 0 0 0 0 0 0 0 0 0 0 0 0 0 0 0 0 0 0 0 0 0 0 0 0 0 0 0 0 0 0 0 0 0 0 0 0 0 0 0 0 0 0 0 0 0 0 0 0 0 0 0 0 0 0 0 0 0 0 0 0 0 0 0 0 0 0 0 0 0 0 0 0 0 0 0 0 0 0 0 0 0 0 0 0 0 0 0 0 0 0 0 0 0 0 0 0 0 0 0 0 0 0 0 0 0 0 0 0 0 0 0 0 0 0 0 0 0 0 0 0 0 0 0 0 0 0 0 0 0 0 0 0 0 0 0 0 0 0 0 0 0 0 0 0 0 0 0 0 0 0 0 0 0 0 0 0 0 0 0 0 0 0 0 0 0 0 0 0 0 0 0 0 0 0 0 0 0 0 0 0 0 0 0 0 0 0 0 0 0 0 0 0 0 0 0 0 0 0 0 0 0 0 0 0 0 0 0 0 0 0 0 0 0 0 0 0 0 0 0 0 0 0 0 0 0 0 0 0 0 0 0 0 0 0 0 0 0 0 0 0 0 0 0 0 0 0 0 0 0 0 0 0 0 0 0 0 0 0 0 0 0 0 0 0 0 0 0 </DataArray>
<DataArray type="Float32" Name="temperature" format="ascii">