<VTKFile type="UnstructuredGrid" version="0.1" byte_order="LittleEndian">
<UnstructuredGrid>
<Piece NumberOfPoints="343" NumberOfCells="216">
<Points>
<DataArray type="Float32" NumberOfComponents="3" format="ascii">
-0.05 -0.05 -0.05 0.05 -0.05 -0.05 0.05 0.05 -0.05 -0.05 0.05 -0.05 -0.05 -0.05 0.05 0.05 -0.05 0.05 0.05 0.05 0.05 -0.05 0.05 0.05 -0.0333333 -0.05 -0.05 -0.0166667 -0.05 -0.05 0 -0.05 -0.05 0.0166667 -0.05 -0.05 0.0333333 -0.05 -0.05 0.05 -0.0333333 -0.05 0.05 -0.0166667 -0.05 0.05 0 -0.05 0.05 0.0166667 -0.05 0.05 0.0333333 -0.05 0.0333333 0.05 -0.05 0.0166667 0.05 -0.05 0 0.05 -0.05 -0.0166667 0.05 -0.05 -0.0333333 0.05 -0.05 -0.05 0.0333333 -0.05 -0.05 0.0166667 -0.05 -0.05 0 -0.05 -0.05 -0.0166667 -0.05 -0.05 -0.0333333 -0.05 -0.0333333 -0.05 0.05 -0.0166667 -0.05 0.05 0 -0.05 0.05 0.0166667 -0.05 0.05 0.0333333 -0.05 0.05 0.05 -0.0333333 0.05 0.05 -0.0166667 0.05 0.05 0 0.05 0.05 0.0166667 0.05 0.05 0.0333333 0.05 0.0333333 0.05 0.05 0.0166667 0.05 0.05 0 0.05 0.05 -0.0166667 0.05 0.05 -0.0333333 0.05 0.05 -0.05 0.0333333 0.05 -0.05 0.0166667 0.05 -0.05 0 0.05 -0.05 -0.0166667 0.05 -0.05 -0.0333333 0.05 -0.05 -0.05 -0.0333333 -0.05 -0.05 -0.0166667 -0.05 -0.05 0 -0.05 -0.05 0.0166667 -0.05 -0.05 0.0333333 0.05 -0.05 -0.0333333 0.05 -0.05 -0.0166667 0.05 -0.05 0 0.05 -0.05 0.0166667 0.05 -0.05 0.0333333 0.05 0.05 -0.0333333 0.05 0.05 -0.0166667 0.05 0.05 0 0.05 0.05 0.0166667 0.05 0.05 0.0333333 -0.05 0.05 -0.0333333 -0.05 0.05 -0.0166667 -0.05 0.05 0 -0.05 0.05 0.0166667 -0.05 0.05 0.0333333 -0.0333333 0.0333333 -0.05 -0.0333333 0.0166667 -0.05 -0.0333333 -3.55271e-18 -0.05 -0.0333333 -0.0166667 -0.05 -0.0333333 -0.0333333 -0.05 -0.0166667 0.0333333 -0.05 -0.0166667 0.0166667 -0.05 -0.0166667 -7.10543e-18 -0.05 -0.0166667 -0.0166667 -0.05 -0.0166667 -0.0333333 -0.05 1.77636e-18 0.0333333 -0.05 5.32907e-18 0.0166667 -0.05 3.55271e-18 -1.77636e-18 -0.05 7.10543e-18 -0.0166667 -0.05 3.55271e-18 -0.0333333 -0.05 0.0166667 0.0333333 -0.05 0.0166667 0.0166667 -0.05 0.0166667 -7.10543e-18 -0.05 0.0166667 -0.0166667 -0.05 0.0166667 -0.0333333 -0.05 0.0333333 0.0333333 -0.05 0.0333333 0.0166667 -0.05 0.0333333 -1.77636e-18 -0.05 0.0333333 -0.0166667 -0.05 0.0333333 -0.0333333 -0.05 -0.0333333 -0.0333333 0.05 -0.0333333 -0.0166667 0.05 -0.0333333 0 0.05 -0.0333333 0.0166667 0.05 -0.0333333 0.0333333 0.05 -0.0166667 -0.0333333 0.05 -0.0166667 -0.0166667 0.05 -0.0166667 0 0.05 -0.0166667 0.0166667 0.05 -0.0166667 0.0333333 0.05 0 -0.0333333 0.05 0 -0.0166667 0.05 0 0 0.05 0 0.0166667 0.05 0 0.0333333 0.05 0.0166667 -0.0333333 0.05 0.0166667 -0.0166667 0.05 0.0166667 0 0.05 0.0166667 0.0166667 0.05 0.0166667 0.0333333 0.05 0.0333333 -0.0333333 0.05 0.0333333 -0.0166667 0.05 0.0333333 1.77636e-18 0.05 0.0333333 0.0166667 0.05 0.0333333 0.0333333 0.05 -0.0333333 -0.05 -0.0333333 -0.0333333 -0.05 -0.0166667 -0.0333333 -0.05 0 -0.0333333 -0.05 0.0166667 -0.0333333 -0.05 0.0333333 -0.0166667 -0.05 -0.0333333 -0.0166667 -0.05 -0.0166667 -0.0166667 -0.05 0 -0.0166667 -0.05 0.0166667 -0.0166667 -0.05 0.0333333 0 -0.05 -0.0333333 0 -0.05 -0.0166667 0 -0.05 0 0 -0.05 0.0166667 0 -0.05 0.0333333 0.0166667 -0.05 -0.0333333 0.0166667 -0.05 -0.0166667 0.0166667 -0.05 0 0.0166667 -0.05 0.0166667 0.0166667 -0.05 0.0333333 0.0333333 -0.05 -0.0333333 0.0333333 -0.05 -0.0166667 0.0333333 -0.05 1.77636e-18 0.0333333 -0.05 0.0166667 0.0333333 -0.05 0.0333333 0.05 -0.0333333 -0.0333333 0.05 -0.0333333 -0.0166667 0.05 -0.0333333 0 0.05 -0.0333333 0.0166667 0.05 -0.0333333 0.0333333 0.05 -0.0166667 -0.0333333 0.05 -0.0166667 -0.0166667 0.05 -0.0166667 0 0.05 -0.0166667 0.0166667 0.05 -0.0166667 0.0333333 0.05 0 -0.0333333 0.05 0 -0.0166667 0.05 0 0 0.05 0 0.0166667 0.05 0 0.0333333 0.05 0.0166667 -0.0333333 0.05 0.0166667 -0.0166667 0.05 0.0166667 0 0.05 0.0166667 0.0166667 0.05 0.0166667 0.0333333 0.05 0.0333333 -0.0333333 0.05 0.0333333 -0.0166667 0.05 0.0333333 1.77636e-18 0.05 0.0333333 0.0166667 0.05 0.0333333 0.0333333 0.0333333 0.05 -0.0333333 0.0333333 0.05 -0.0166667 0.0333333 0.05 0 0.0333333 0.05 0.0166667 0.0333333 0.05 0.0333333 0.0166667 0.05 -0.0333333 0.0166667 0.05 -0.0166667 0.0166667 0.05 0 0.0166667 0.05 0.0166667 0.0166667 0.05 0.0333333 0 0.05 -0.0333333 0 0.05 -0.0166667 0 0.05 0 0 0.05 0.0166667 0 0.05 0.0333333 -0.0166667 0.05 -0.0333333 -0.0166667 0.05 -0.0166667 -0.0166667 0.05 0 -0.0166667 0.05 0.0166667 -0.0166667 0.05 0.0333333 -0.0333333 0.05 -0.0333333 -0.0333333 0.05 -0.0166667 -0.0333333 0.05 1.77636e-18 -0.0333333 0.05 0.0166667 -0.0333333 0.05 0.0333333 -0.05 0.0333333 -0.0333333 -0.05 0.0333333 -0.0166667 -0.05 0.0333333 0 -0.05 0.0333333 0.0166667 -0.05 0.0333333 0.0333333 -0.05 0.0166667 -0.0333333 -0.05 0.0166667 -0.0166667 -0.05 0.0166667 0 -0.05 0.0166667 0.0166667 -0.05 0.0166667 0.0333333 -0.05 0 -0.0333333 -0.05 0 -0.0166667 -0.05 0 0 -0.05 0 0.0166667 -0.05 0 0.0333333 -0.05 -0.0166667 -0.0333333 -0.05 -0.0166667 -0.0166667 -0.05 -0.0166667 0 -0.05 -0.0166667 0.0166667 -0.05 -0.0166667 0.0333333 -0.05 -0.0333333 -0.0333333 -0.05 -0.0333333 -0.0166667 -0.05 -0.0333333 1.77636e-18 -0.05 -0.0333333 0.0166667 -0.05 -0.0333333 0.0333333 -0.0333333 0.0333333 -0.0333333 -0.0333333 0.0333333 -0.0166667 -0.0333333 0.0333333 4.44089e-19 -0.0333333 0.0333333 0.0166667 -0.0333333 0.0333333 0.0333333 -0.0333333 0.0166667 -0.0333333 -0.0333333 0.0166667 -0.0166667 -0.0333333 0.0166667 -4.44089e-18 -0.0333333 0.0166667 0.0166667 -0.0333333 0.0166667 0.0333333 -0.0333333 -6.66134e-18 -0.0333333 -0.0333333 -9.76996e-18 -0.0166667 -0.0333333 -1.77636e-18 -1.77636e-18 -0.0333333 -1.77636e-18 0.0166667 -0.0333333 3.55271e-18 0.0333333 -0.0333333 -0.0166667 -0.0333333 -0.0333333 -0.0166667 -0.0166667 -0.0333333 -0.0166667 1.77636e-18 -0.0333333 -0.0166667 0.0166667 -0.0333333 -0.0166667 0.0333333 -0.0333333 -0.0333333 -0.0333333 -0.0333333 -0.0333333 -0.0166667 -0.0333333 -0.0333333 0 -0.0333333 -0.0333333 0.0166667 -0.0333333 -0.0333333 0.0333333 -0.0166667 0.0333333 -0.0333333 -0.0166667 0.0333333 -0.0166667 -0.0166667 0.0333333 2.66454e-18 -0.0166667 0.0333333 0.0166667 -0.0166667 0.0333333 0.0333333 -0.0166667 0.0166667 -0.0333333 -0.0166667 0.0166667 -0.0166667 -0.0166667 0.0166667 -1.77636e-18 -0.0166667 0.0166667 0.0166667 -0.0166667 0.0166667 0.0333333 -0.0166667 -1.06581e-17 -0.0333333 -0.0166667 -1.15463e-17 -0.0166667 -0.0166667 -3.55271e-18 0 -0.0166667 -8.88178e-18 0.0166667 -0.0166667 -1.77636e-18 0.0333333 -0.0166667 -0.0166667 -0.0333333 -0.0166667 -0.0166667 -0.0166667 -0.0166667 -0.0166667 3.55271e-18 -0.0166667 -0.0166667 0.0166667 -0.0166667 -0.0166667 0.0333333 -0.0166667 -0.0333333 -0.0333333 -0.0166667 -0.0333333 -0.0166667 -0.0166667 -0.0333333 0 -0.0166667 -0.0333333 0.0166667 -0.0166667 -0.0333333 0.0333333 3.44169e-18 0.0333333 -0.0333333 1.02141e-17 0.0333333 -0.0166667 2.66454e-18 0.0333333 -8.88178e-19 6.21725e-18 0.0333333 0.0166667 1.33227e-18 0.0333333 0.0333333 7.99361e-18 0.0166667 -0.0333333 8.43769e-18 0.0166667 -0.0166667 8.88178e-19 0.0166667 8.88178e-19 7.99361e-18 0.0166667 0.0166667 3.55271e-18 0.0166667 0.0333333 3.55271e-18 -1.77636e-18 -0.0333333 9.76996e-18 -9.76996e-18 -0.0166667 0 -8.88178e-19 -8.88178e-19 8.88178e-18 -8.88178e-18 0.0166667 1.77636e-18 -1.77636e-18 0.0333333 1.02141e-17 -0.0166667 -0.0333333 1.24345e-17 -0.0166667 -0.0166667 3.55271e-18 -0.0166667 -1.77636e-18 8.88178e-18 -0.0166667 0.0166667 3.55271e-18 -0.0166667 0.0333333 5.77316e-18 -0.0333333 -0.0333333 4.44089e-18 -0.0333333 -0.0166667 1.77636e-18 -0.0333333 1.77636e-18 5.32907e-18 -0.0333333 0.0166667 0 -0.0333333 0.0333333 0.0166667 0.0333333 -0.0333333 0.0166667 0.0333333 -0.0166667 0.0166667 0.0333333 -2.66454e-18 0.0166667 0.0333333 0.0166667 0.0166667 0.0333333 0.0333333 0.0166667 0.0166667 -0.0333333 0.0166667 0.0166667 -0.0166667 0.0166667 0.0166667 3.10862e-18 0.0166667 0.0166667 0.0166667 0.0166667 0.0166667 0.0333333 0.0166667 -1.24345e-17 -0.0333333 0.0166667 -1.37668e-17 -0.0166667 0.0166667 -3.55271e-18 -1.77636e-18 0.0166667 -6.21725e-18 0.0166667 0.0166667 -8.88178e-19 0.0333333 0.0166667 -0.0166667 -0.0333333 0.0166667 -0.0166667 -0.0166667 0.0166667 -0.0166667 2.66454e-18 0.0166667 -0.0166667 0.0166667 0.0166667 -0.0166667 0.0333333 0.0166667 -0.0333333 -0.0333333 0.0166667 -0.0333333 -0.0166667 0.0166667 -0.0333333 0 0.0166667 -0.0333333 0.0166667 0.0166667 -0.0333333 0.0333333 0.0333333 0.0333333 -0.0333333 0.0333333 0.0333333 -0.0166667 0.0333333 0.0333333 3.33067e-19 0.0333333 0.0333333 0.0166667 0.0333333 0.0333333 0.0333333 0.0333333 0.0166667 -0.0333333 0.0333333 0.0166667 -0.0166667 0.0333333 0.0166667 1.11022e-18 0.0333333 0.0166667 0.0166667 0.0333333 0.0166667 0.0333333 0.0333333 -4.44089e-18 -0.0333333 0.0333333 -4.21885e-18 -0.0166667 0.0333333 8.88178e-19 8.88178e-19 0.0333333 -1.33227e-18 0.0166667 0.0333333 3.55271e-18 0.0333333 0.0333333 -0.0166667 -0.0333333 0.0333333 -0.0166667 -0.0166667 0.0333333 -0.0166667 2.22045e-18 0.0333333 -0.0166667 0.0166667 0.0333333 -0.0166667 0.0333333 0.0333333 -0.0333333 -0.0333333 0.0333333 -0.0333333 -0.0166667 0.0333333 -0.0333333 2.22045e-18 0.0333333 -0.0333333 0.0166667 0.0333333 -0.0333333 0.0333333 </DataArray>
</Points>
<Cells>
<DataArray type="Int32" Name="connectivity" format="ascii">
68 22 3 23 218 188 63 193 218 188 63 193 219 189 64 194 219 189 64 194 220 190 65 195 220 190 65 195 221 191 66 196 221 191 66 196 222 192 67 197 222 192 67 197 97 42 7 43 69 68 23 24 223 218 193 198 223 218 193 198 224 219 194 199 224 219 194 199 225 220 195 200 225 220 195 200 226 221 196 201 226 221 196 201 227 222 197 202 227 222 197 202 96 97 43 44 70 69 24 25 228 223 198 203 228 223 198 203 229 224 199 204 229 224 199 204 230 225 200 205 230 225 200 205 231 226 201 206 231 226 201 206 232 227 202 207 232 227 202 207 95 96 44 45 71 70 25 26 233 228 203 208 233 228 203 208 234 229 204 209 234 229 204 209 235 230 205 210 235 230 205 210 236 231 206 211 236 231 206 211 237 232 207 212 237 232 207 212 94 95 45 46 72 71 26 27 238 233 208 213 238 233 208 213 239 234 209 214 239 234 209 214 240 235 210 215 240 235 210 215 241 236 211 216 241 236 211 216 242 237 212 217 242 237 212 217 93 94 46 47 8 72 27 0 118 238 213 48 118 238 213 48 119 239 214 49 119 239 214 49 120 240 215 50 120 240 215 50 121 241 216 51 121 241 216 51 122 242 217 52 122 242 217 52 28 93 47 4 73 21 22 68 243 183 188 218 243 183 188 218 244 184 189 219 244 184 189 219 245 185 190 220 245 185 190 220 246 186 191 221 246 186 191 221 247 187 192 222 247 187 192 222 102 41 42 97 74 73 68 69 248 243 218 223 248 243 218 223 249 244 219 224 249 244 219 224 250 245 220 225 250 245 220 225 251 246 221 226 251 246 221 226 252 247 222 227 252 247 222 227 101 102 97 96 75 74 69 70 253 248 223 228 253 248 223 228 254 249 224 229 254 249 224 229 255 250 225 230 255 250 225 230 256 251 226 231 256 251 226 231 257 252 227 232 257 252 227 232 100 101 96 95 76 75 70 71 258 253 228 233 258 253 228 233 259 254 229 234 259 254 229 234 260 255 230 235 260 255 230 235 261 256 231 236 261 256 231 236 262 257 232 237 262 257 232 237 99 100 95 94 77 76 71 72 263 258 233 238 263 258 233 238 264 259 234 239 264 259 234 239 265 260 235 240 265 260 235 240 266 261 236 241 266 261 236 241 267 262 237 242 267 262 237 242 98 99 94 93 9 77 72 8 123 263 238 118 123 263 238 118 124 264 239 119 124 264 239 119 125 265 240 120 125 265 240 120 126 266 241 121 126 266 241 121 127 267 242 122 127 267 242 122 29 98 93 28 78 20 21 73 268 178 183 243 268 178 183 243 269 179 184 244 269 179 184 244 270 180 185 245 270 180 185 245 271 181 186 246 271 181 186 246 272 182 187 247 272 182 187 247 107 40 41 102 79 78 73 74 273 268 243 248 273 268 243 248 274 269 244 249 274 269 244 249 275 270 245 250 275 270 245 250 276 271 246 251 276 271 246 251 277 272 247 252 277 272 247 252 106 107 102 101 80 79 74 75 278 273 248 253 278 273 248 253 279 274 249 254 279 274 249 254 280 275 250 255 280 275 250 255 281 276 251 256 281 276 251 256 282 277 252 257 282 277 252 257 105 106 101 100 81 80 75 76 283 278 253 258 283 278 253 258 284 279 254 259 284 279 254 259 285 280 255 260 285 280 255 260 286 281 256 261 286 281 256 261 287 282 257 262 287 282 257 262 104 105 100 99 82 81 76 77 288 283 258 263 288 283 258 263 289 284 259 264 289 284 259 264 290 285 260 265 290 285 260 265 291 286 261 266 291 286 261 266 292 287 262 267 292 287 262 267 103 104 99 98 10 82 77 9 128 288 263 123 128 288 263 123 129 289 264 124 129 289 264 124 130 290 265 125 130 290 265 125 131 291 266 126 131 291 266 126 132 292 267 127 132 292 267 127 30 103 98 29 83 19 20 78 293 173 178 268 293 173 178 268 294 174 179 269 294 174 179 269 295 175 180 270 295 175 180 270 296 176 181 271 296 176 181 271 297 177 182 272 297 177 182 272 112 39 40 107 84 83 78 79 298 293 268 273 298 293 268 273 299 294 269 274 299 294 269 274 300 295 270 275 300 295 270 275 301 296 271 276 301 296 271 276 302 297 272 277 302 297 272 277 111 112 107 106 85 84 79 80 303 298 273 278 303 298 273 278 304 299 274 279 304 299 274 279 305 300 275 280 305 300 275 280 306 301 276 281 306 301 276 281 307 302 277 282 307 302 277 282 110 111 106 105 86 85 80 81 308 303 278 283 308 303 278 283 309 304 279 284 309 304 279 284 310 305 280 285 310 305 280 285 311 306 281 286 311 306 281 286 312 307 282 287 312 307 282 287 109 110 105 104 87 86 81 82 313 308 283 288 313 308 283 288 314 309 284 289 314 309 284 289 315 310 285 290 315 310 285 290 316 311 286 291 316 311 286 291 317 312 287 292 317 312 287 292 108 109 104 103 11 87 82 10 133 313 288 128 133 313 288 128 134 314 289 129 134 314 289 129 135 315 290 130 135 315 290 130 136 316 291 131 136 316 291 131 137 317 292 132 137 317 292 132 31 108 103 30 88 18 19 83 318 168 173 293 318 168 173 293 319 169 174 294 319 169 174 294 320 170 175 295 320 170 175 295 321 171 176 296 321 171 176 296 322 172 177 297 322 172 177 297 117 38 39 112 89 88 83 84 323 318 293 298 323 318 293 298 324 319 294 299 324 319 294 299 325 320 295 300 325 320 295 300 326 321 296 301 326 321 296 301 327 322 297 302 327 322 297 302 116 117 112 111 90 89 84 85 328 323 298 303 328 323 298 303 329 324 299 304 329 324 299 304 330 325 300 305 330 325 300 305 331 326 301 306 331 326 301 306 332 327 302 307 332 327 302 307 115 116 111 110 91 90 85 86 333 328 303 308 333 328 303 308 334 329 304 309 334 329 304 309 335 330 305 310 335 330 305 310 336 331 306 311 336 331 306 311 337 332 307 312 337 332 307 312 114 115 110 109 92 91 86 87 338 333 308 313 338 333 308 313 339 334 309 314 339 334 309 314 340 335 310 315 340 335 310 315 341 336 311 316 341 336 311 316 342 337 312 317 342 337 312 317 113 114 109 108 12 92 87 11 138 338 313 133 138 338 313 133 139 339 314 134 139 339 314 134 140 340 315 135 140 340 315 135 141 341 316 136 141 341 316 136 142 342 317 137 142 342 317 137 32 113 108 31 17 2 18 88 163 58 168 318 163 58 168 318 164 59 169 319 164 59 169 319 165 60 170 320 165 60 170 320 166 61 171 321 166 61 171 321 167 62 172 322 167 62 172 322 37 6 38 117 16 17 88 89 158 163 318 323 158 163 318 323 159 164 319 324 159 164 319 324 160 165 320 325 160 165 320 325 161 166 321 326 161 166 321 326 162 167 322 327 162 167 322 327 36 37 117 116 15 16 89 90 153 158 323 328 153 158 323 328 154 159 324 329 154 159 324 329 155 160 325 330 155 160 325 330 156 161 326 331 156 161 326 331 157 162 327 332 157 162 327 332 35 36 116 115 14 15 90 91 148 153 328 333 148 153 328 333 149 154 329 334 149 154 329 334 150 155 330 335 150 155 330 335 151 156 331 336 151 156 331 336 152 157 332 337 152 157 332 337 34 35 115 114 13 14 91 92 143 148 333 338 143 148 333 338 144 149 334 339 144 149 334 339 145 150 335 340 145 150 335 340 146 151 336 341 146 151 336 341 147 152 337 342 147 152 337 342 33 34 114 113 1 13 92 12 53 143 338 138 53 143 338 138 54 144 339 139 54 144 339 139 55 145 340 140 55 145 340 140 56 146 341 141 56 146 341 141 57 147 342 142 57 147 342 142 5 33 113 32 </DataArray>
<DataArray type="Int32" Name="offsets" format="ascii">
8 16 24 32 40 48 56 64 72 80 88 96 104 112 120 128 136 144 152 160 168 176 184 192 200 208 216 224 232 240 248 256 264 272 280 288 296 304 312 320 328 336 344 352 360 368 376 384 392 400 408 416 424 432 440 448 456 464 472 480 488 496 504 512 520 528 536 544 552 560 568 576 584 592 600 608 616 624 632 640 648 656 664 672 680 688 696 704 712 720 728 736 744 752 760 768 776 784 792 800 808 816 824 832 840 848 856 864 872 880 888 896 904 912 920 928 936 944 952 960 968 976 984 992 1000 1008 1016 1024 1032 1040 1048 1056 1064 1072 1080 1088 1096 1104 1112 1120 1128 1136 1144 1152 1160 1168 1176 1184 1192 1200 1208 1216 1224 1232 1240 1248 1256 1264 1272 1280 1288 1296 1304 1312 1320 1328 1336 1344 1352 1360 1368 1376 1384 1392 1400 1408 1416 1424 1432 1440 1448 1456 1464 1472 1480 1488 1496 1504 1512 1520 1528 1536 1544 1552 1560 1568 1576 1584 1592 1600 1608 1616 1624 1632 1640 1648 1656 1664 1672 1680 1688 1696 1704 1712 1720 1728 </DataArray>
<DataArray type="UInt8" Name="types" format="ascii">
12 12 12 12 12 12 12 12 12 12 12 12 12 12 12 12 12 12 12 12 12 12 12 12 12 12 12 12 12 12 12 12 12 12 12 12 12 12 12 12 12 12 12 12 12 12 12 12 12 12 12 12 12 12 12 12 12 12 12 12 12 12 12 12 12 12 12 12 12 12 12 12 12 12 12 12 12 12 12 12 12 12 12 12 12 12 12 12 12 12 12 12 12 12 12 12 12 12 12 12 12 12 12 12 12 12 12 12 12 12 12 12 12 12 12 12 12 12 12 12 12 12 12 12 12 12 12 12 12 12 12 12 12 12 12 12 12 12 12 12 12 12 12 12 12 12 12 12 12 12 12 12 12 12 12 12 12 12 12 12 12 12 12 12 12 12 12 12 12 12 12 12 12 12 12 12 12 12 12 12 12 12 12 12 12 12 12 12 12 12 12 12 12 12 12 12 12 12 12 12 12 12 12 12 12 12 12 12 12 12 12 12 12 12 12 12 </DataArray>
</Cells>
<CellData Scalars="scalars">
<DataArray type="Float32" Name="number_density" format="ascii">
7.344e+15 7.992e+15 7.56e+15 7.776e+15 7.56e+15 8.424e+15 6.912e+15 9.072e+15 7.56e+15 8.64e+15 9.072e+15 8.64e+15 9.288e+15 7.56e+15 6.696e+15 6.696e+15 7.344e+15 1.1016e+16 7.128e+15 9.072e+15 5.4e+15 7.776e+15 9.504e+15 9.72e+15 7.776e+15 7.128e+15 1.1664e+16 1.1016e+16 8.424e+15 9.936e+15 9.72e+15 6.912e+15 7.992e+15 6.912e+15 7.776e+15 7.128e+15 6.48e+15 8.208e+15 1.08e+16 9.72e+15 9.936e+15 8.208e+15 5.616e+15 6.48e+15 1.08e+16 1.5336e+16 1.296e+16 1.2096e+16 6.48e+15 9.936e+15 1.0584e+16 1.3176e+16 1.3608e+16 9.504e+15 6.264e+15 1.188e+16 1.2312e+16 1.4256e+16 1.1016e+16 8.424e+15 7.128e+15 6.696e+15 1.188e+16 1.0584e+16 9.072e+15 1.08e+16 9.072e+15 1.0368e+16 9.72e+15 1.0584e+16 6.912e+15 8.424e+15 4.968e+15 9.936e+15 9.072e+15 1.2744e+16 1.1016e+16 1.0152e+16 7.128e+15 9.504e+15 1.2096e+16 1.7496e+16 1.4688e+16 1.1664e+16 5.4e+15 1.2312e+16 1.3824e+16 2.9808e+16 2.376e+16 1.4688e+16 6.048e+15 8.856e+15 1.404e+16 2.5272e+16 1.9008e+16 9.72e+15 6.696e+15 1.0368e+16 1.08e+16 1.0584e+16 1.4472e+16 9.504e+15 5.4e+15 7.992e+15 7.992e+15 7.776e+15 1.0368e+16 8.424e+15 7.56e+15 9.288e+15 6.696e+15 1.1664e+16 1.0368e+16 1.08e+16 7.56e+15 9.504e+15 1.3392e+16 1.8144e+16 1.3824e+16 1.512e+16 5.616e+15 1.0584e+16 1.6632e+16 2.4192e+16 2.052e+16 1.08e+16 6.912e+15 7.776e+15 1.5768e+16 1.8792e+16 1.5552e+16 1.2744e+16 7.776e+15 9.936e+15 9.504e+15 1.2528e+16 9.72e+15 1.0152e+16 6.048e+15 8.64e+15 7.128e+15 8.424e+15 6.48e+15 1.0368e+16 8.64e+15 8.424e+15 1.08e+16 1.296e+16 9.072e+15 1.0584e+16 7.344e+15 1.08e+16 1.2744e+16 1.0152e+16 1.4472e+16 9.72e+15 6.48e+15 1.188e+16 1.3176e+16 1.7496e+16 1.4472e+16 1.0368e+16 8.424e+15 9.936e+15 1.4256e+16 1.188e+16 1.1016e+16 1.188e+16 7.128e+15 9.288e+15 8.64e+15 7.776e+15 8.64e+15 9.72e+15 7.992e+15 7.128e+15 6.912e+15 9.288e+15 8.856e+15 1.0152e+16 9.072e+15 8.424e+15 9.504e+15 1.0368e+16 9.72e+15 9.72e+15 6.912e+15 8.424e+15 1.0152e+16 9.72e+15 1.08e+16 8.856e+15 7.992e+15 7.56e+15 7.992e+15 9.072e+15 9.72e+15 1.0152e+16 6.048e+15 5.4e+15 7.128e+15 7.56e+15 9.288e+15 9.288e+15 8.208e+15 8.424e+15 7.128e+15 7.128e+15 9.072e+15 1.0152e+16 9.288e+15 6.048e+15 6.912e+15 9.072e+15 9.72e+15 9.936e+15 </DataArray>
<DataArray type="Float32" Name="potential" format="ascii">
0 0 0 0 0 0 0 0 0 0 0 0 0 0 0 0 0 0 0 0 0 0 0 0 0 0 0 0 0 0 0 0 0 0 0 0 0 0 0 0 0 0 0 0 0 0 0 0 0 0 0 0 0 0 0 0 0 0 0 0 0 0 0 0 0 0 0 0 0 0 0 0 0 0 0 0 0 0 0 0 0 0 0 0 0 0 0 0 0 0 0 0 0 0 0 0 0 0 0 0 0 0 0 0 0 0 0 0 0 0 0 0 0 0 0 0 0 0 0 0 0 0 0 0 0 0 0 0 0 0 0 0 0 0 0 0 0 0 0 0 0 0 0 0 0 0 0 0 0 0 0 0 0 0 0 0 0 0 0 0 0 0 0 0 0 0 0 0 0 0 0 0 0 0 0 0 0 0 0 0 0 0 0 0 0 0 0 0 0 0 0 0 0 0 0 0 0 0 0 0 0 0 0 0 0 0 0 0 0 0 0 0 0 0 0 0 </DataArray>
<DataArray type="Float32" Name="temperature" format="ascii">
253.656 346.335 260.225 306.974 290.649 276.124 209.541 285.653 334.248 341.675 349.239 323.624 264.965 277.169 382.118 399.519 388.533 293.118 237.325 304.214 325.293 394.385 259.257 354.481 186.831 222.272 288.897 234.575 319.415 306.056 252.621 327.318 318.519 338.821 259.727 252.268 204.633 271.255 350.195 346.148 247.858 323.569 203.779 349.79 426.597 431.24 349.415 312.774 257.669 296.442 452.698 425.994 427.908 293.259 307.668 274.691 351.802 469.203 338.034 289.235 324.472 291.79 301 274.367 318.361 249.061 271.804 268.729 271.517 350.379 204.743 267.678 218.673 270.908 316.113 362.624 311.712 346.798 284.794 321.269 430.238 537.061 413.189 323.679 351.674 383.813 587.051 631.95 546.099 360.636 337.592 305.891 439.901 643.538 462.308 378.601 400.725 297.427 386.283 460.172 302.798 242.734 353.757 293.267 270.531 300.983 336.362 307.776 196.154 216.785 379.583 412.046 299.233 260.422 250.238 325.144 443.677 505.078 456.036 299.636 303.151 349.529 466.073 714.657 492.361 304.17 349.517 281.021 528.547 518.334 529.864 311.724 230.456 378.994 372.555 314.508 351.623 283.095 317.817 278.86 372.667 303.326 266.926 296.89 283.884 275.043 347.279 307.409 269.237 239.657 256.588 294.327 323.467 412.371 359.189 294.771 298.859 282.442 381.67 450.364 408.995 332.576 295.322 358.22 350.363 404.454 347.731 331.645 273.466 338.75 301.856 264.819 330.061 258.102 265.876 216.008 312.902 306.677 248.574 242.782 322.139 256.339 265.637 324.877 286.74 332.45 297.567 330.744 271.98 334.099 270.764 293.294 215.707 273.347 301.166 298.934 286.057 329.125 230.064 274.866 274.479 329.507 261.629 258.273 262.158 226.838 245.702 293.076 279.533 298.807 269.432 278.668 276.799 279.561 246.876 229.476 </DataArray>
<DataArray type="Float32" Name="velocity" format="ascii">
120.391 233.642 202.098 189.149 97.1797 36.545 302.164 275.272 381.778 393.636 154.148 106.586 299.593 296.034 494.712 314.34 208.598 126.514 254.548 376.826 498.218 368.227 265.239 178.824 148.217 246.184 292.041 278.838 225.835 191.874 62.023 114.447 219.835 175.015 157.417 171.96 173.064 394.599 364.657 299.568 186.154 73.6939 256.945 430.655 507.552 474.958 312.651 162.822 404.219 575.29 735.871 620.528 300.243 203.482 405.734 554.082 676.004 598.214 355.103 253.523 284.625 465.942 519.577 466.225 307.595 169.686 124.979 267.624 303.783 256.391 173.279 72.7684 290.826 435.679 476.641 445.822 101.819 120.664 409.745 638.149 698.906 492.769 224.422 97.1554 494.75 831.49 966.902 736.441 253.552 194.963 484.958 804.179 944.351 760.895 411.874 197.523 333.568 518.667 687.114 531.417 387.162 269.631 233.065 387.324 403.376 267.252 157.169 110.718 291.165 382.393 410.852 358.887 114.961 61.4562 369.628 599.325 760.371 485.728 159.543 94.4228 519.66 837.075 961.915 651.462 157.53 150.437 539.637 779.301 920.684 768.776 399.699 227.473 357.544 695.918 743.048 589.765 367.829 247.742 236.109 350.498 484.073 410.824 230.342 122.128 196.772 303.398 333.125 198.83 39.0263 81.0298 244.479 491.168 500.252 408.066 206.517 141.323 336.958 587.8 720.297 504.439 200.306 160.475 394.205 602.482 748.256 650.026 369.269 195.488 220.111 439.687 588.605 539.804 341.99 256.751 174.322 291.963 401.467 284.684 263.914 125.618 55.5216 133.073 201.812 155.709 61.846 109.177 168.261 271.469 341.269 252.217 156.396 53.6827 220.134 328.946 423.412 331.284 299.141 129.503 346.012 437.492 460.124 367.39 284.773 126.189 110.061 373.082 375.873 332.054 256.06 117.23 61.9558 172.265 250.87 202.149 157.663 125.718 </DataArray>
<DataArray type="Float32" Name="E_field" format="ascii">
0 0 0 0 0 0 0 0 0 0 0 0 0 0 0 0 0 0 0 0 0 0 0 0 0 0 0 0 0 0 0 0 0 0 0 0 0 0 0 0 0 0 0 0 0 0 0 0 0 0 0 0 0 0 0 0 0 0 0 0 0 0 0 0 0 0 0 0 0 0 0 0 0 0 0 0 0 0 0 0 0 0 0 0 0 0 0 0 0 0 0 0 0 0 0 0 0 0 0 0 0 0 0 0 0 0 0 0 0 0 0 0 0 0 0 0 0 0 0 0 0 0 0 0 0 0 0 0 0 0 0 0 0 0 0 0 0 0 0 0 0 0 0 0 0 0 0 0 0 0 0 0 0 0 0 0 0 0 0 0 0 0 0 0 0 0 0 0 0 0 0 0 0 0 0 0 0 0 0 0 0 0 0 0 0 0 0 0 0 0 0 0 0 0 0 0 0 0 0 0 0 0 0 0 0 0 0 0 0 0 0 0 0 0 0 0 </DataArray>
</CellData>
<PointData Scalars="number_density">
<DataArray type="Float32" Name="number_density" format="ascii">
9.72e+15 9.288e+15 9.072e+15 7.344e+15 7.128e+15 9.936e+15 9.72e+15 8.424e+15 9.396e+15 7.236e+15 5.724e+15 7.02e+15 8.64e+15 8.748e+15 7.128e+15 7.02e+15 7.452e+15 7.992e+15 8.856e+15 8.1e+15 6.264e+15 5.724e+15 6.912e+15 7.128e+15 8.1e+15 8.208e+15 7.452e+15 8.748e+15 7.776e+15 8.424e+15 9.396e+15 1.026e+16 1.0044e+16 1.0044e+16 9.72e+15 9.72e+15 9.504e+15 9.288e+15 1.0152e+16 1.0692e+16 1.0476e+16 9.18e+15 8.316e+15 8.532e+15 9.828e+15 1.0368e+16 9.828e+15 8.532e+15 8.316e+15 7.452e+15 7.452e+15 7.344e+15 7.452e+15 7.668e+15 6.48e+15 7.992e+15 9.396e+15 9.828e+15 8.748e+15 8.964e+15 9.936e+15 1.0044e+16 9.72e+15 7.668e+15 7.776e+15 7.668e+15 7.668e+15 7.992e+15 6.588e+15 7.074e+15 7.29e+15 7.074e+15 8.424e+15 6.048e+15 6.156e+15 6.048e+15 6.534e+15 7.074e+15 6.804e+15 6.426e+15 5.994e+15 6.858e+15 6.48e+15 7.776e+15 6.75e+15 6.858e+15 7.56e+15 7.236e+15 7.992e+15 7.182e+15 7.236e+15 7.452e+15 8.154e+15 9.072e+15 9.72e+15 9.666e+15 1.0314e+16 9.342e+15 9.288e+15 9.612e+15 1.0584e+16 1.1988e+16 1.053e+16 9.612e+15 1.053e+16 1.1988e+16 1.3068e+16 1.1934e+16 1.0098e+16 1.1124e+16 1.1448e+16 1.1502e+16 1.1556e+16 9.99e+15 1.026e+16 1.0422e+16 9.774e+15 9.72e+15 9.018e+15 8.748e+15 8.802e+15 8.046e+15 7.56e+15 8.208e+15 9.018e+15 9.018e+15 8.91e+15 8.532e+15 7.02e+15 7.938e+15 7.83e+15 8.262e+15 8.91e+15 7.452e+15 7.452e+15 7.938e+15 8.262e+15 8.964e+15 7.614e+15 6.75e+15 8.046e+15 9.234e+15 9.666e+15 7.992e+15 7.128e+15 7.56e+15 8.748e+15 9.72e+15 7.02e+15 7.02e+15 7.236e+15 8.262e+15 9.45e+15 6.75e+15 7.02e+15 7.938e+15 8.91e+15 9.612e+15 7.722e+15 8.532e+15 9.234e+15 9.828e+15 9.882e+15 8.208e+15 9.126e+15 9.936e+15 1.0152e+16 9.774e+15 8.64e+15 9.288e+15 1.0908e+16 1.053e+16 9.774e+15 8.478e+15 8.802e+15 1.053e+16 1.1016e+16 1.0206e+16 7.938e+15 8.748e+15 1.0044e+16 1.1448e+16 1.0584e+16 7.398e+15 9.504e+15 1.0584e+16 1.0854e+16 9.828e+15 7.506e+15 8.64e+15 8.964e+15 8.748e+15 8.532e+15 7.83e+15 8.046e+15 7.884e+15 8.262e+15 8.424e+15 8.208e+15 7.722e+15 7.398e+15 7.938e+15 9.018e+15 8.262e+15 7.182e+15 6.642e+15 7.83e+15 9.396e+15 7.776e+15 8.316e+15 8.964e+15 9.18e+15 9.396e+15 7.884e+15 8.424e+15 9.396e+15 8.532e+15 8.316e+15 7.263e+15 8.559e+15 9.774e+15 1.0125e+16 9.612e+15 7.668e+15 8.586e+15 9.936e+15 1.0854e+16 1.053e+16 8.451e+15 9.18e+15 9.612e+15 1.0422e+16 1.0017e+16 7.884e+15 9.504e+15 1.0611e+16 1.0206e+16 9.612e+15 8.1e+15 9.045e+15 1.0044e+16 8.91e+15 8.559e+15 7.29e+15 9.612e+15 1.2258e+16 1.2987e+16 1.134e+16 7.857e+15 1.0692e+16 1.539e+16 1.7604e+16 1.4121e+16 8.397e+15 1.1718e+16 1.6659e+16 1.8738e+16 1.3716e+16 7.992e+15 1.0854e+16 1.3716e+16 1.4283e+16 1.1502e+16 7.965e+15 9.477e+15 9.99e+15 1.0044e+16 9.747e+15 8.181e+15 9.936e+15 1.2663e+16 1.3743e+16 1.2204e+16 8.451e+15 1.2231e+16 1.8198e+16 2.0304e+16 1.5633e+16 7.938e+15 1.2474e+16 1.9791e+16 2.2113e+16 1.5849e+16 8.046e+15 1.0881e+16 1.4661e+16 1.5741e+16 1.2609e+16 7.857e+15 9.045e+15 9.342e+15 1.0044e+16 9.936e+15 8.64e+15 1.0206e+16 1.2069e+16 1.2582e+16 1.1745e+16 8.721e+15 1.2339e+16 1.5741e+16 1.6659e+16 1.3662e+16 8.451e+15 1.2501e+16 1.6524e+16 1.674e+16 1.3419e+16 8.397e+15 1.0638e+16 1.2393e+16 1.1988e+16 1.1178e+16 7.992e+15 8.397e+15 8.775e+15 8.964e+15 9.261e+15 8.505e+15 9.909e+15 1.08e+16 1.0908e+16 1.0368e+16 8.424e+15 1.0341e+16 1.1313e+16 1.1988e+16 1.107e+16 7.965e+15 9.666e+15 1.107e+16 1.1313e+16 1.0773e+16 7.857e+15 8.775e+15 8.937e+15 9.045e+15 9.882e+15 7.938e+15 7.56e+15 7.857e+15 8.694e+15 9.531e+15 </DataArray>
<DataArray type="Float32" Name="potential" format="ascii">
0 0 0 0 0 0 0 0 0 0 0 0 0 0 0 0 0 0 0 0 0 0 0 0 0 0 0 0 0 0 0 0 0 0 0 0 0 0 0 0 0 0 0 0 0 0 0 0 0 0 0 0 0 0 0 0 0 0 0 0 0 0 0 0 0 0 0 0 0 0 0 0 0 0 0 0 0 0 0 0 0 0 0 0 0 0 0 0 0 0 0 0 0 0 0 0 0 0 0 0 0 0 0 0 0 0 0 0 0 0 0 0 0 0 0 0 0 0 0 0 0 0 0 0 0 0 0 0 0 0 0 0 0 0 0 0 0 0 0 0 0 0 0 0 0 0 0 0 0 0 0 0 0 0 0 0 0 0 0 0 0 0 0 0 0 0 0 0 0 0 0 0 0 0 0 0 0 0 0 0 0 0 0 0 0 0 0 0 0 0 0 0 0 0 0 0 0 0 0 0 0 0 0 0 0 0 0 0 0 0 0 0 0 0 0 0 0 0 0 0 0 0 0 0 0 0 0 0 0 0 0 0 0 0 0 0 0 0 0 0 0 0 0 0 0 0 0 0 0 0 0 0 0 0 0 0 0 0 0 0 0 0 0 0 0 0 0 0 0 0 0 0 0 0 0 0 0 0 0 0 0 0 0 0 0 0 0 0 0 0 0 0 0 0 0 0 0 0 0 0 0 0 0 0 0 0 0 0 0 0 0 0 0 0 0 0 0 0 0 0 0 0 0 0 0 0 0 0 0 0 0 0 0 0 0 0 0 0 0 0 0 0 0 </DataArray>
<DataArray type="Float32" Name="temperature" format="ascii">