<VTKFile type="UnstructuredGrid" version="0.1" byte_order="LittleEndian">
<UnstructuredGrid>
<Piece NumberOfPoints="343" NumberOfCells="216">
<Points>
<DataArray type="Float32" NumberOfComponents="3" format="ascii">
-0.05 -0.05 -0.05 0.05 -0.05 -0.05 0.05 0.05 -0.05 -0.05 0.05 -0.05 -0.05 -0.05 0.05 0.05 -0.05 0.05 0.05 0.05 0.05 -0.05 0.05 0.05 -0.0333333 -0.05 -0.05 -0.0166667 -0.05 -0.05 0 -0.05 -0.05 0.0166667 -0.05 -0.05 0.0333333 -0.05 -0.05 0.05 -0.0333333 -0.05 0.05 -0.0166667 -0.05 0.05 0 -0.05 0.05 0.0166667 -0.05 0.05 0.0333333 -0.05 0.0333333 0.05 -0.05 0.0166667 0.05 -0.05 0 0.05 -0.05 -0.0166667 0.05 -0.05 -0.0333333 0.05 -0.05 -0.05 0.0333333 -0.05 -0.05 0.0166667 -0.05 -0.05 0 -0.05 -0.05 -0.0166667 -0.05 -0.05 -0.0333333 -0.05 -0.0333333 -0.05 0.05 -0.0166667 -0.05 0.05 0 -0.05 0.05 0.0166667 -0.05 0.05 0.0333333 -0.05 0.05 0.05 -0.0333333 0.05 0.05 -0.0166667 0.05 0.05 0 0.05 0.05 0.0166667 0.05 0.05 0.0333333 0.05 0.0333333 0.05 0.05 0.0166667 0.05 0.05 0 0.05 0.05 -0.0166667 0.05 0.05 -0.0333333 0.05 0.05 -0.05 0.0333333 0.05 -0.05 0.0166667 0.05 -0.05 0 0.05 -0.05 -0.0166667 0.05 -0.05 -0.0333333 0.05 -0.05 -0.05 -0.0333333 -0.05 -0.05 -0.0166667 -0.05 -0.05 0 -0.05 -0.05 0.0166667 -0.05 -0.05 0.0333333 0.05 -0.05 -0.0333333 0.05 -0.05 -0.0166667 0.05 -0.05 0 0.05 -0.05 0.0166667 0.05 -0.05 0.0333333 0.05 0.05 -0.0333333 0.05 0.05 -0.0166667 0.05 0.05 0 0.05 0.05 0.0166667 0.05 0.05 0.0333333 -0.05 0.05 -0.0333333 -0.05 0.05 -0.0166667 -0.05 0.05 0 -0.05 0.05 0.0166667 -0.05 0.05 0.0333333 -0.0333333 0.0333333 -0.05 -0.0333333 0.0166667 -0.05 -0.0333333 -3.55271e-18 -0.05 -0.0333333 -0.0166667 -0.05 -0.0333333 -0.0333333 -0.05 -0.0166667 0.0333333 -0.05 -0.0166667 0.0166667 -0.05 -0.0166667 -7.10543e-18 -0.05 -0.0166667 -0.0166667 -0.05 -0.0166667 -0.0333333 -0.05 1.77636e-18 0.0333333 -0.05 5.32907e-18 0.0166667 -0.05 3.55271e-18 -1.77636e-18 -0.05 7.10543e-18 -0.0166667 -0.05 3.55271e-18 -0.0333333 -0.05 0.0166667 0.0333333 -0.05 0.0166667 0.0166667 -0.05 0.0166667 -7.10543e-18 -0.05 0.0166667 -0.0166667 -0.05 0.0166667 -0.0333333 -0.05 0.0333333 0.0333333 -0.05 0.0333333 0.0166667 -0.05 0.0333333 -1.77636e-18 -0.05 0.0333333 -0.0166667 -0.05 0.0333333 -0.0333333 -0.05 -0.0333333 -0.0333333 0.05 -0.0333333 -0.0166667 0.05 -0.0333333 0 0.05 -0.0333333 0.0166667 0.05 -0.0333333 0.0333333 0.05 -0.0166667 -0.0333333 0.05 -0.0166667 -0.0166667 0.05 -0.0166667 0 0.05 -0.0166667 0.0166667 0.05 -0.0166667 0.0333333 0.05 0 -0.0333333 0.05 0 -0.0166667 0.05 0 0 0.05 0 0.0166667 0.05 0 0.0333333 0.05 0.0166667 -0.0333333 0.05 0.0166667 -0.0166667 0.05 0.0166667 0 0.05 0.0166667 0.0166667 0.05 0.0166667 0.0333333 0.05 0.0333333 -0.0333333 0.05 0.0333333 -0.0166667 0.05 0.0333333 1.77636e-18 0.05 0.0333333 0.0166667 0.05 0.0333333 0.0333333 0.05 -0.0333333 -0.05 -0.0333333 -0.0333333 -0.05 -0.0166667 -0.0333333 -0.05 0 -0.0333333 -0.05 0.0166667 -0.0333333 -0.05 0.0333333 -0.0166667 -0.05 -0.0333333 -0.0166667 -0.05 -0.0166667 -0.0166667 -0.05 0 -0.0166667 -0.05 0.0166667 -0.0166667 -0.05 0.0333333 0 -0.05 -0.0333333 0 -0.05 -0.0166667 0 -0.05 0 0 -0.05 0.0166667 0 -0.05 0.0333333 0.0166667 -0.05 -0.0333333 0.0166667 -0.05 -0.0166667 0.0166667 -0.05 0 0.0166667 -0.05 0.0166667 0.0166667 -0.05 0.0333333 0.0333333 -0.05 -0.0333333 0.0333333 -0.05 -0.0166667 0.0333333 -0.05 1.77636e-18 0.0333333 -0.05 0.0166667 0.0333333 -0.05 0.0333333 0.05 -0.0333333 -0.0333333 0.05 -0.0333333 -0.0166667 0.05 -0.0333333 0 0.05 -0.0333333 0.0166667 0.05 -0.0333333 0.0333333 0.05 -0.0166667 -0.0333333 0.05 -0.0166667 -0.0166667 0.05 -0.0166667 0 0.05 -0.0166667 0.0166667 0.05 -0.0166667 0.0333333 0.05 0 -0.0333333 0.05 0 -0.0166667 0.05 0 0 0.05 0 0.0166667 0.05 0 0.0333333 0.05 0.0166667 -0.0333333 0.05 0.0166667 -0.0166667 0.05 0.0166667 0 0.05 0.0166667 0.0166667 0.05 0.0166667 0.0333333 0.05 0.0333333 -0.0333333 0.05 0.0333333 -0.0166667 0.05 0.0333333 1.77636e-18 0.05 0.0333333 0.0166667 0.05 0.0333333 0.0333333 0.0333333 0.05 -0.0333333 0.0333333 0.05 -0.0166667 0.0333333 0.05 0 0.0333333 0.05 0.0166667 0.0333333 0.05 0.0333333 0.0166667 0.05 -0.0333333 0.0166667 0.05 -0.0166667 0.0166667 0.05 0 0.0166667 0.05 0.0166667 0.0166667 0.05 0.0333333 0 0.05 -0.0333333 0 0.05 -0.0166667 0 0.05 0 0 0.05 0.0166667 0 0.05 0.0333333 -0.0166667 0.05 -0.0333333 -0.0166667 0.05 -0.0166667 -0.0166667 0.05 0 -0.0166667 0.05 0.0166667 -0.0166667 0.05 0.0333333 -0.0333333 0.05 -0.0333333 -0.0333333 0.05 -0.0166667 -0.0333333 0.05 1.77636e-18 -0.0333333 0.05 0.0166667 -0.0333333 0.05 0.0333333 -0.05 0.0333333 -0.0333333 -0.05 0.0333333 -0.0166667 -0.05 0.0333333 0 -0.05 0.0333333 0.0166667 -0.05 0.0333333 0.0333333 -0.05 0.0166667 -0.0333333 -0.05 0.0166667 -0.0166667 -0.05 0.0166667 0 -0.05 0.0166667 0.0166667 -0.05 0.0166667 0.0333333 -0.05 0 -0.0333333 -0.05 0 -0.0166667 -0.05 0 0 -0.05 0 0.0166667 -0.05 0 0.0333333 -0.05 -0.0166667 -0.0333333 -0.05 -0.0166667 -0.0166667 -0.05 -0.0166667 0 -0.05 -0.0166667 0.0166667 -0.05 -0.0166667 0.0333333 -0.05 -0.0333333 -0.0333333 -0.05 -0.0333333 -0.0166667 -0.05 -0.0333333 1.77636e-18 -0.05 -0.0333333 0.0166667 -0.05 -0.0333333 0.0333333 -0.0333333 0.0333333 -0.0333333 -0.0333333 0.0333333 -0.0166667 -0.0333333 0.0333333 4.44089e-19 -0.0333333 0.0333333 0.0166667 -0.0333333 0.0333333 0.0333333 -0.0333333 0.0166667 -0.0333333 -0.0333333 0.0166667 -0.0166667 -0.0333333 0.0166667 -4.44089e-18 -0.0333333 0.0166667 0.0166667 -0.0333333 0.0166667 0.0333333 -0.0333333 -6.66134e-18 -0.0333333 -0.0333333 -9.76996e-18 -0.0166667 -0.0333333 -1.77636e-18 -1.77636e-18 -0.0333333 -1.77636e-18 0.0166667 -0.0333333 3.55271e-18 0.0333333 -0.0333333 -0.0166667 -0.0333333 -0.0333333 -0.0166667 -0.0166667 -0.0333333 -0.0166667 1.77636e-18 -0.0333333 -0.0166667 0.0166667 -0.0333333 -0.0166667 0.0333333 -0.0333333 -0.0333333 -0.0333333 -0.0333333 -0.0333333 -0.0166667 -0.0333333 -0.0333333 0 -0.0333333 -0.0333333 0.0166667 -0.0333333 -0.0333333 0.0333333 -0.0166667 0.0333333 -0.0333333 -0.0166667 0.0333333 -0.0166667 -0.0166667 0.0333333 2.66454e-18 -0.0166667 0.0333333 0.0166667 -0.0166667 0.0333333 0.0333333 -0.0166667 0.0166667 -0.0333333 -0.0166667 0.0166667 -0.0166667 -0.0166667 0.0166667 -1.77636e-18 -0.0166667 0.0166667 0.0166667 -0.0166667 0.0166667 0.0333333 -0.0166667 -1.06581e-17 -0.0333333 -0.0166667 -1.15463e-17 -0.0166667 -0.0166667 -3.55271e-18 0 -0.0166667 -8.88178e-18 0.0166667 -0.0166667 -1.77636e-18 0.0333333 -0.0166667 -0.0166667 -0.0333333 -0.0166667 -0.0166667 -0.0166667 -0.0166667 -0.0166667 3.55271e-18 -0.0166667 -0.0166667 0.0166667 -0.0166667 -0.0166667 0.0333333 -0.0166667 -0.0333333 -0.0333333 -0.0166667 -0.0333333 -0.0166667 -0.0166667 -0.0333333 0 -0.0166667 -0.0333333 0.0166667 -0.0166667 -0.0333333 0.0333333 3.44169e-18 0.0333333 -0.0333333 1.02141e-17 0.0333333 -0.0166667 2.66454e-18 0.0333333 -8.88178e-19 6.21725e-18 0.0333333 0.0166667 1.33227e-18 0.0333333 0.0333333 7.99361e-18 0.0166667 -0.0333333 8.43769e-18 0.0166667 -0.0166667 8.88178e-19 0.0166667 8.88178e-19 7.99361e-18 0.0166667 0.0166667 3.55271e-18 0.0166667 0.0333333 3.55271e-18 -1.77636e-18 -0.0333333 9.76996e-18 -9.76996e-18 -0.0166667 0 -8.88178e-19 -8.88178e-19 8.88178e-18 -8.88178e-18 0.0166667 1.77636e-18 -1.77636e-18 0.0333333 1.02141e-17 -0.0166667 -0.0333333 1.24345e-17 -0.0166667 -0.0166667 3.55271e-18 -0.0166667 -1.77636e-18 8.88178e-18 -0.0166667 0.0166667 3.55271e-18 -0.0166667 0.0333333 5.77316e-18 -0.0333333 -0.0333333 4.44089e-18 -0.0333333 -0.0166667 1.77636e-18 -0.0333333 1.77636e-18 5.32907e-18 -0.0333333 0.0166667 0 -0.0333333 0.0333333 0.0166667 0.0333333 -0.0333333 0.0166667 0.0333333 -0.0166667 0.0166667 0.0333333 -2.66454e-18 0.0166667 0.0333333 0.0166667 0.0166667 0.0333333 0.0333333 0.0166667 0.0166667 -0.0333333 0.0166667 0.0166667 -0.0166667 0.0166667 0.0166667 3.10862e-18 0.0166667 0.0166667 0.0166667 0.0166667 0.0166667 0.0333333 0.0166667 -1.24345e-17 -0.0333333 0.0166667 -1.37668e-17 -0.0166667 0.0166667 -3.55271e-18 -1.77636e-18 0.0166667 -6.21725e-18 0.0166667 0.0166667 -8.88178e-19 0.0333333 0.0166667 -0.0166667 -0.0333333 0.0166667 -0.0166667 -0.0166667 0.0166667 -0.0166667 2.66454e-18 0.0166667 -0.0166667 0.0166667 0.0166667 -0.0166667 0.0333333 0.0166667 -0.0333333 -0.0333333 0.0166667 -0.0333333 -0.0166667 0.0166667 -0.0333333 0 0.0166667 -0.0333333 0.0166667 0.0166667 -0.0333333 0.0333333 0.0333333 0.0333333 -0.0333333 0.0333333 0.0333333 -0.0166667 0.0333333 0.0333333 3.33067e-19 0.0333333 0.0333333 0.0166667 0.0333333 0.0333333 0.0333333 0.0333333 0.0166667 -0.0333333 0.0333333 0.0166667 -0.0166667 0.0333333 0.0166667 1.11022e-18 0.0333333 0.0166667 0.0166667 0.0333333 0.0166667 0.0333333 0.0333333 -4.44089e-18 -0.0333333 0.0333333 -4.21885e-18 -0.0166667 0.0333333 8.88178e-19 8.88178e-19 0.0333333 -1.33227e-18 0.0166667 0.0333333 3.55271e-18 0.0333333 0.0333333 -0.0166667 -0.0333333 0.0333333 -0.0166667 -0.0166667 0.0333333 -0.0166667 2.22045e-18 0.0333333 -0.0166667 0.0166667 0.0333333 -0.0166667 0.0333333 0.0333333 -0.0333333 -0.0333333 0.0333333 -0.0333333 -0.0166667 0.0333333 -0.0333333 2.22045e-18 0.0333333 -0.0333333 0.0166667 0.0333333 -0.0333333 0.0333333 </DataArray>
</Points>
<Cells>
<DataArray type="Int32" Name="connectivity" format="ascii">
68 22 3 23 218 188 63 193 218 188 63 193 219 189 64 194 219 189 64 194 220 190 65 195 220 190 65 195 221 191 66 196 221 191 66 196 222 192 67 197 222 192 67 197 97 42 7 43 69 68 23 24 223 218 193 198 223 218 193 198 224 219 194 199 224 219 194 199 225 220 195 200 225 220 195 200 226 221 196 201 226 221 196 201 227 222 197 202 227 222 197 202 96 97 43 44 70 69 24 25 228 223 198 203 228 223 198 203 229 224 199 204 229 224 199 204 230 225 200 205 230 225 200 205 231 226 201 206 231 226 201 206 232 227 202 207 232 227 202 207 95 96 44 45 71 70 25 26 233 228 203 208 233 228 203 208 234 229 204 209 234 229 204 209 235 230 205 210 235 230 205 210 236 231 206 211 236 231 206 211 237 232 207 212 237 232 207 212 94 95 45 46 72 71 26 27 238 233 208 213 238 233 208 213 239 234 209 214 239 234 209 214 240 235 210 215 240 235 210 215 241 236 211 216 241 236 211 216 242 237 212 217 242 237 212 217 93 94 46 47 8 72 27 0 118 238 213 48 118 238 213 48 119 239 214 49 119 239 214 49 120 240 215 50 120 240 215 50 121 241 216 51 121 241 216 51 122 242 217 52 122 242 217 52 28 93 47 4 73 21 22 68 243 183 188 218 243 183 188 218 244 184 189 219 244 184 189 219 245 185 190 220 245 185 190 220 246 186 191 221 246 186 191 221 247 187 192 222 247 187 192 222 102 41 42 97 74 73 68 69 248 243 218 223 248 243 218 223 249 244 219 224 249 244 219 224 250 245 220 225 250 245 220 225 251 246 221 226 251 246 221 226 252 247 222 227 252 247 222 227 101 102 97 96 75 74 69 70 253 248 223 228 253 248 223 228 254 249 224 229 254 249 224 229 255 250 225 230 255 250 225 230 256 251 226 231 256 251 226 231 257 252 227 232 257 252 227 232 100 101 96 95 76 75 70 71 258 253 228 233 258 253 228 233 259 254 229 234 259 254 229 234 260 255 230 235 260 255 230 235 261 256 231 236 261 256 231 236 262 257 232 237 262 257 232 237 99 100 95 94 77 76 71 72 263 258 233 238 263 258 233 238 264 259 234 239 264 259 234 239 265 260 235 240 265 260 235 240 266 261 236 241 266 261 236 241 267 262 237 242 267 262 237 242 98 99 94 93 9 77 72 8 123 263 238 118 123 263 238 118 124 264 239 119 124 264 239 119 125 265 240 120 125 265 240 120 126 266 241 121 126 266 241 121 127 267 242 122 127 267 242 122 29 98 93 28 78 20 21 73 268 178 183 243 268 178 183 243 269 179 184 244 269 179 184 244 270 180 185 245 270 180 185 245 271 181 186 246 271 181 186 246 272 182 187 247 272 182 187 247 107 40 41 102 79 78 73 74 273 268 243 248 273 268 243 248 274 269 244 249 274 269 244 249 275 270 245 250 275 270 245 250 276 271 246 251 276 271 246 251 277 272 247 252 277 272 247 252 106 107 102 101 80 79 74 75 278 273 248 253 278 273 248 253 279 274 249 254 279 274 249 254 280 275 250 255 280 275 250 255 281 276 251 256 281 276 251 256 282 277 252 257 282 277 252 257 105 106 101 100 81 80 75 76 283 278 253 258 283 278 253 258 284 279 254 259 284 279 254 259 285 280 255 260 285 280 255 260 286 281 256 261 286 281 256 261 287 282 257 262 287 282 257 262 104 105 100 99 82 81 76 77 288 283 258 263 288 283 258 263 289 284 259 264 289 284 259 264 290 285 260 265 290 285 260 265 291 286 261 266 291 286 261 266 292 287 262 267 292 287 262 267 103 104 99 98 10 82 77 9 128 288 263 123 128 288 263 123 129 289 264 124 129 289 264 124 130 290 265 125 130 290 265 125 131 291 266 126 131 291 266 126 132 292 267 127 132 292 267 127 30 103 98 29 83 19 20 78 293 173 178 268 293 173 178 268 294 174 179 269 294 174 179 269 295 175 180 270 295 175 180 270 296 176 181 271 296 176 181 271 297 177 182 272 297 177 182 272 112 39 40 107 84 83 78 79 298 293 268 273 298 293 268 273 299 294 269 274 299 294 269 274 300 295 270 275 300 295 270 275 301 296 271 276 301 296 271 276 302 297 272 277 302 297 272 277 111 112 107 106 85 84 79 80 303 298 273 278 303 298 273 278 304 299 274 279 304 299 274 279 305 300 275 280 305 300 275 280 306 301 276 281 306 301 276 281 307 302 277 282 307 302 277 282 110 111 106 105 86 85 80 81 308 303 278 283 308 303 278 283 309 304 279 284 309 304 279 284 310 305 280 285 310 305 280 285 311 306 281 286 311 306 281 286 312 307 282 287 312 307 282 287 109 110 105 104 87 86 81 82 313 308 283 288 313 308 283 288 314 309 284 289 314 309 284 289 315 310 285 290 315 310 285 290 316 311 286 291 316 311 286 291 317 312 287 292 317 312 287 292 108 109 104 103 11 87 82 10 133 313 288 128 133 313 288 128 134 314 289 129 134 314 289 129 135 315 290 130 135 315 290 130 136 316 291 131 136 316 291 131 137 317 292 132 137 317 292 132 31 108 103 30 88 18 19 83 318 168 173 293 318 168 173 293 319 169 174 294 319 169 174 294 320 170 175 295 320 170 175 295 321 171 176 296 321 171 176 296 322 172 177 297 322 172 177 297 117 38 39 112 89 88 83 84 323 318 293 298 323 318 293 298 324 319 294 299 324 319 294 299 325 320 295 300 325 320 295 300 326 321 296 301 326 321 296 301 327 322 297 302 327 322 297 302 116 117 112 111 90 89 84 85 328 323 298 303 328 323 298 303 329 324 299 304 329 324 299 304 330 325 300 305 330 325 300 305 331 326 301 306 331 326 301 306 332 327 302 307 332 327 302 307 115 116 111 110 91 90 85 86 333 328 303 308 333 328 303 308 334 329 304 309 334 329 304 309 335 330 305 310 335 330 305 310 336 331 306 311 336 331 306 311 337 332 307 312 337 332 307 312 114 115 110 109 92 91 86 87 338 333 308 313 338 333 308 313 339 334 309 314 339 334 309 314 340 335 310 315 340 335 310 315 341 336 311 316 341 336 311 316 342 337 312 317 342 337 312 317 113 114 109 108 12 92 87 11 138 338 313 133 138 338 313 133 139 339 314 134 139 339 314 134 140 340 315 135 140 340 315 135 141 341 316 136 141 341 316 136 142 342 317 137 142 342 317 137 32 113 108 31 17 2 18 88 163 58 168 318 163 58 168 318 164 59 169 319 164 59 169 319 165 60 170 320 165 60 170 320 166 61 171 321 166 61 171 321 167 62 172 322 167 62 172 322 37 6 38 117 16 17 88 89 158 163 318 323 158 163 318 323 159 164 319 324 159 164 319 324 160 165 320 325 160 165 320 325 161 166 321 326 161 166 321 326 162 167 322 327 162 167 322 327 36 37 117 116 15 16 89 90 153 158 323 328 153 158 323 328 154 159 324 329 154 159 324 329 155 160 325 330 155 160 325 330 156 161 326 331 156 161 326 331 157 162 327 332 157 162 327 332 35 36 116 115 14 15 90 91 148 153 328 333 148 153 328 333 149 154 329 334 149 154 329 334 150 155 330 335 150 155 330 335 151 156 331 336 151 156 331 336 152 157 332 337 152 157 332 337 34 35 115 114 13 14 91 92 143 148 333 338 143 148 333 338 144 149 334 339 144 149 334 339 145 150 335 340 145 150 335 340 146 151 336 341 146 151 336 341 147 152 337 342 147 152 337 342 33 34 114 113 1 13 92 12 53 143 338 138 53 143 338 138 54 144 339 139 54 144 339 139 55 145 340 140 55 145 340 140 56 146 341 141 56 146 341 141 57 147 342 142 57 147 342 142 5 33 113 32 </DataArray>
<DataArray type="Int32" Name="offsets" format="ascii">
8 16 24 32 40 48 56 64 72 80 88 96 104 112 120 128 136 144 152 160 168 176 184 192 200 208 216 224 232 240 248 256 264 272 280 288 296 304 312 320 328 336 344 352 360 368 376 384 392 400 408 416 424 432 440 448 456 464 472 480 488 496 504 512 520 528 536 544 552 560 568 576 584 592 600 608 616 624 632 640 648 656 664 672 680 688 696 704 712 720 728 736 744 752 760 768 776 784 792 800 808 816 824 832 840 848 856 864 872 880 888 896 904 912 920 928 936 944 952 960 968 976 984 992 1000 1008 1016 1024 1032 1040 1048 1056 1064 1072 1080 1088 1096 1104 1112 1120 1128 1136 1144 1152 1160 1168 1176 1184 1192 1200 1208 1216 1224 1232 1240 1248 1256 1264 1272 1280 1288 1296 1304 1312 1320 1328 1336 1344 1352 1360 1368 1376 1384 1392 1400 1408 1416 1424 1432 1440 1448 1456 1464 1472 1480 1488 1496 1504 1512 1520 1528 1536 1544 1552 1560 1568 1576 1584 1592 1600 1608 1616 1624 1632 1640 1648 1656 1664 1672 1680 1688 1696 1704 1712 1720 1728 </DataArray>
<DataArray type="UInt8" Name="types" format="ascii">
12 12 12 12 12 12 12 12 12 12 12 12 12 12 12 12 12 12 12 12 12 12 12 12 12 12 12 12 12 12 12 12 12 12 12 12 12 12 12 12 12 12 12 12 12 12 12 12 12 12 12 12 12 12 12 12 12 12 12 12 12 12 12 12 12 12 12 12 12 12 12 12 12 12 12 12 12 12 12 12 12 12 12 12 12 12 12 12 12 12 12 12 12 12 12 12 12 12 12 12 12 12 12 12 12 12 12 12 12 12 12 12 12 12 12 12 12 12 12 12 12 12 12 12 12 12 12 12 12 12 12 12 12 12 12 12 12 12 12 12 12 12 12 12 12 12 12 12 12 12 12 12 12 12 12 12 12 12 12 12 12 12 12 12 12 12 12 12 12 12 12 12 12 12 12 12 12 12 12 12 12 12 12 12 12 12 12 12 12 12 12 12 12 12 12 12 12 12 12 12 12 12 12 12 12 12 12 12 12 12 12 12 12 12 12 12 </DataArray>
</Cells>
<CellData Scalars="scalars">
<DataArray type="Float32" Name="number_density" format="ascii">
7.128e+15 7.128e+15 7.128e+15 7.776e+15 8.208e+15 8.424e+15 6.048e+15 9.288e+15 6.696e+15 7.56e+15 9.072e+15 8.208e+15 9.072e+15 7.776e+15 5.832e+15 5.832e+15 6.696e+15 1.08e+16 7.128e+15 9.288e+15 5.4e+15 7.992e+15 9.72e+15 9.936e+15 7.56e+15 6.264e+15 1.1016e+16 1.0584e+16 7.344e+15 9.072e+15 9.504e+15 6.696e+15 7.776e+15 6.264e+15 7.128e+15 6.912e+15 6.264e+15 7.128e+15 9.936e+15 9.504e+15 9.504e+15 7.344e+15 5.184e+15 7.128e+15 1.0152e+16 1.7064e+16 1.2744e+16 1.2528e+16 5.832e+15 1.0584e+16 1.2528e+16 1.5336e+16 1.3824e+16 1.0152e+16 5.184e+15 1.0368e+16 1.3176e+16 1.3176e+16 1.1448e+16 7.992e+15 6.48e+15 7.776e+15 1.1232e+16 1.188e+16 9.504e+15 1.1232e+16 8.424e+15 9.288e+15 9.504e+15 1.0152e+16 6.912e+15 8.424e+15 5.4e+15 8.856e+15 1.08e+16 1.2528e+16 1.1448e+16 1.0152e+16 6.264e+15 9.936e+15 1.2312e+16 2.0736e+16 1.6632e+16 1.3176e+16 4.32e+15 1.0584e+16 1.2744e+16 3.8664e+16 2.8296e+16 1.4688e+16 5.616e+15 7.344e+15 1.296e+16 2.5056e+16 2.0736e+16 9.288e+15 7.56e+15 1.0584e+16 1.0584e+16 1.2096e+16 1.4904e+16 9.504e+15 5.4e+15 7.56e+15 8.64e+15 7.128e+15 8.856e+15 8.64e+15 6.912e+15 8.856e+15 6.696e+15 1.1232e+16 1.0152e+16 1.1016e+16 7.992e+15 9.072e+15 1.2096e+16 2.1384e+16 1.62e+16 1.3824e+16 4.536e+15 1.0152e+16 1.6848e+16 3.0456e+16 2.2464e+16 1.2096e+16 5.832e+15 8.856e+15 1.3608e+16 2.268e+16 1.6848e+16 1.1448e+16 7.128e+15 7.992e+15 1.1016e+16 1.1664e+16 9.288e+15 1.08e+16 5.832e+15 8.64e+15 6.696e+15 8.64e+15 7.776e+15 9.072e+15 7.776e+15 7.992e+15 1.08e+16 1.2744e+16 9.72e+15 1.1016e+16 7.128e+15 1.1232e+16 1.3824e+16 1.1016e+16 1.5768e+16 7.776e+15 5.832e+15 1.188e+16 1.3176e+16 1.7712e+16 1.62e+16 1.0584e+16 6.264e+15 1.08e+16 1.1448e+16 1.1448e+16 1.3176e+16 1.2096e+16 6.912e+15 9.288e+15 7.992e+15 9.072e+15 9.504e+15 9.072e+15 7.128e+15 6.912e+15 6.696e+15 7.992e+15 9.072e+15 9.72e+15 9.072e+15 7.776e+15 9.072e+15 9.288e+15 8.856e+15 9.936e+15 6.048e+15 7.992e+15 9.72e+15 9.504e+15 1.1664e+16 9.072e+15 7.128e+15 7.776e+15 8.856e+15 8.856e+15 9.72e+15 9.288e+15 5.616e+15 5.4e+15 7.776e+15 7.128e+15 8.208e+15 9.072e+15 7.344e+15 8.424e+15 7.344e+15 5.832e+15 8.64e+15 9.936e+15 8.424e+15 6.264e+15 6.048e+15 8.856e+15 9.072e+15 9.288e+15 </DataArray>
<DataArray type="Float32" Name="potential" format="ascii">
0 0 0 0 0 0 0 0 0 0 0 0 0 0 0 0 0 0 0 0 0 0 0 0 0 0 0 0 0 0 0 0 0 0 0 0 0 0 0 0 0 0 0 0 0 0 0 0 0 0 0 0 0 0 0 0 0 0 0 0 0 0 0 0 0 0 0 0 0 0 0 0 0 0 0 0 0 0 0 0 0 0 0 0 0 0 0 0 0 0 0 0 0 0 0 0 0 0 0 0 0 0 0 0 0 0 0 0 0 0 0 0 0 0 0 0 0 0 0 0 0 0 0 0 0 0 0 0 0 0 0 0 0 0 0 0 0 0 0 0 0 0 0 0 0 0 0 0 0 0 0 0 0 0 0 0 0 0 0 0 0 0 0 0 0 0 0 0 0 0 0 0 0 0 0 0 0 0 0 0 0 0 0 0 0 0 0 0 0 0 0 0 0 0 0 0 0 0 0 0 0 0 0 0 0 0 0 0 0 0 0 0 0 0 0 0 </DataArray>
<DataArray type="Float32" Name="temperature" format="ascii">
259.604 319.948 288.142 294.191 300.862 278.25 178.171 300.262 276.158 365.665 384.473 277.352 261.475 264.129 426.657 431.706 343.547 280.72 254.931 317.329 272.047 399.22 302.329 340.875 198.382 217.745 317.46 227.598 311.213 284.757 237.181 324.013 297.516 346.877 252.829 246.539 209.184 264.231 351.853 370.976 257.907 337.914 215.833 384.862 469.818 436.054 338.736 325.487 289.72 315.132 473 504.903 458.251 312.244 288.613 285.973 368.874 512.814 343.697 297.892 341.119 307.191 353.019 323.118 324.501 283.529 257.834 273.547 268.383 359.756 230.786 261.238 259.222 272.3 294.295 395.404 324.788 338.656 259.591 328.65 541.345 584.574 471.966 320.545 340.59 364.378 605.447 742.648 626.672 369.821 357.002 304.713 439.09 658.309 571.941 385.251 402.226 314.718 316.543 470.773 316.367 265.278 368.527 287.291 262.627 352.839 332.579 298.967 191.346 230.706 341.365 417.061 337.511 246.961 261.693 305.246 462.335 590.334 489.413 301.428 333.439 279.985 514.563 756.323 566.991 362.095 337.956 353.922 530.614 538.248 561.258 305.087 255.708 357.215 411.968 291.431 370.247 272.59 327.252 286.153 384.44 316.672 315.082 286.928 282.224 274.973 359.687 317.439 271.671 246.062 256.508 311.2 347.375 351.699 400.268 285.545 289.905 294.524 364.217 490.194 405.82 328.397 250.147 356.369 348.108 494.789 423.081 346.903 274.01 322.559 286.777 308.692 346.971 251.753 262.733 231.302 284.057 325.172 267.234 241.969 310.68 253.681 235.539 339.296 254.818 329.505 307.474 292.208 286.975 337.996 291.858 315.409 207.738 280.646 329.11 306.799 301.945 312.535 243.413 261.576 285.05 315.709 257.815 256.369 279.85 227.572 254.761 294.123 261.909 289.685 256.624 261.545 255.62 277.166 224.104 227.783 </DataArray>
<DataArray type="Float32" Name="velocity" format="ascii">
144.408 231.599 224.747 242.159 139.177 44.2364 286.464 316.956 405.852 348.868 136.769 145.108 300.768 372.667 559.407 347.953 221.678 122.904 270.02 396.953 456.858 393.773 300.534 208.967 176.301 270.734 331.449 323.33 221.226 185.613 79.5419 131.321 206.954 194.01 190.054 170.125 199.07 404.557 387.713 299.709 214.256 86.4638 286.635 476.638 587.438 505.342 363.112 166.749 442.752 661.502 762.417 642.419 346.655 232.514 507.03 588.762 736.225 647.326 361.636 274.173 275.471 489.332 551.147 466.012 331.634 209.371 143.332 284.705 335.515 293.042 173.868 100.753 343.167 463.121 547.814 441.591 109.972 150.419 426.223 701.316 781.032 582.481 284.941 97.1906 575.605 867.839 1047.87 807.396 293.886 230.934 548.392 839.208 1043.8 819.563 454.639 181.571 393.228 561.059 739.692 616.06 429.515 273.435 252.788 392.41 442.049 320.875 134.215 138.42 320.96 397.055 472.217 373.747 158.35 46.0704 401.132 655.936 826.727 539.992 183.529 93.3202 541.99 941.056 1044.89 750.554 189.948 130.109 551.929 826.33 1015.08 846.966 439.734 253.961 404.673 714.841 850.966 665.06 411.483 276.183 257.32 408.882 477.621 445.842 261.871 103.561 203.994 311.546 369.463 200.406 44.2398 79.9171 242.439 532.948 586.291 453.694 218.101 100.785 373.651 643.352 786.707 592.914 236.197 200.203 373.077 665.776 803.125 741.863 424.344 219.456 256.983 507.606 612.622 581.578 345.683 272.108 200.069 319.14 433.394 283.605 288.21 131.422 85.8561 141.986 215.949 181.355 51.1262 111.984 160.935 302.161 363.775 253.357 192.561 76.4152 268.608 376.203 469.614 342.15 246.773 107.516 321.159 475.882 532.137 426.1 298.476 139.016 132.066 388.435 424.057 350.979 286.874 107.789 87.4083 177.064 260.748 240.971 159.29 135.283 </DataArray>
<DataArray type="Float32" Name="E_field" format="ascii">
0 0 0 0 0 0 0 0 0 0 0 0 0 0 0 0 0 0 0 0 0 0 0 0 0 0 0 0 0 0 0 0 0 0 0 0 0 0 0 0 0 0 0 0 0 0 0 0 0 0 0 0 0 0 0 0 0 0 0 0 0 0 0 0 0 0 0 0 0 0 0 0 0 0 0 0 0 0 0 0 0 0 0 0 0 0 0 0 0 0 0 0 0 0 0 0 0 0 0 0 0 0 0 0 0 0 0 0 0 0 0 0 0 0 0 0 0 0 0 0 0 0 0 0 0 0 0 0 0 0 0 0 0 0 0 0 0 0 0 0 0 0 0 0 0 0 0 0 0 0 0 0 0 0 0 0 0 0 0 0 0 0 0 0 0 0 0 0 0 0 0 0 0 0 0 0 0 0 0 0 0 0 0 0 0 0 0 0 0 0 0 0 0 0 0 0 0 0 0 0 0 0 0 0 0 0 0 0 0 0 0 0 0 0 0 0 </DataArray>
</CellData>
<PointData Scalars="number_density">
<DataArray type="Float32" Name="number_density" format="ascii">
9.504e+15 8.424e+15 9.072e+15 7.128e+15 6.912e+15 9.288e+15 9.936e+15 8.424e+15 8.964e+15 6.912e+15 5.616e+15 6.48e+15 7.776e+15 7.884e+15 6.48e+15 6.372e+15 6.588e+15 7.56e+15 8.424e+15 7.344e+15 6.156e+15 5.832e+15 6.696e+15 6.588e+15 7.56e+15 8.1e+15 7.344e+15 8.532e+15 7.668e+15 8.532e+15 8.856e+15 9.396e+15 9.504e+15 9.612e+15 9.504e+15 9.18e+15 9.18e+15 9.504e+15 1.0476e+16 1.1016e+16 1.0584e+16 8.748e+15 7.884e+15 8.316e+15 9.504e+15 1.0368e+16 9.504e+15 7.992e+15 8.1e+15 7.236e+15 7.02e+15 6.696e+15 7.02e+15 7.344e+15 6.156e+15 7.452e+15 8.964e+15 9.18e+15 8.424e+15 8.424e+15 9.18e+15 9.072e+15 9.396e+15 7.128e+15 7.128e+15 7.452e+15 7.992e+15 8.316e+15 6.156e+15 6.534e+15 6.804e+15 6.588e+15 7.992e+15 5.778e+15 5.4e+15 5.238e+15 6.21e+15 6.966e+15 6.642e+15 5.778e+15 5.076e+15 6.534e+15 6.48e+15 7.452e+15 6.372e+15 5.616e+15 6.534e+15 6.75e+15 7.506e+15 6.534e+15 6.21e+15 6.534e+15 7.452e+15 8.91e+15 9.558e+15 9.72e+15 1.0422e+16 9.126e+15 9.45e+15 9.504e+15 1.053e+16 1.2636e+16 1.08e+16 9.504e+15 1.026e+16 1.188e+16 1.3446e+16 1.2042e+16 9.666e+15 1.0854e+16 1.1556e+16 1.107e+16 1.0908e+16 9.504e+15 1.0044e+16 1.026e+16 9.18e+15 9.45e+15 8.478e+15 8.316e+15 8.424e+15 7.614e+15 7.344e+15 7.668e+15 8.748e+15 8.856e+15 8.262e+15 8.208e+15 6.858e+15 7.884e+15 7.776e+15 8.1e+15 8.586e+15 7.128e+15 7.236e+15 7.506e+15 8.37e+15 8.91e+15 7.182e+15 6.48e+15 7.398e+15 8.748e+15 9.288e+15 7.614e+15 7.02e+15 7.02e+15 8.1e+15 9.234e+15 6.696e+15 7.236e+15 7.02e+15 7.452e+15 8.964e+15 6.48e+15 7.452e+15 8.154e+15 8.478e+15 9.072e+15 7.236e+15 8.586e+15 9.234e+15 9.936e+15 9.936e+15 7.722e+15 8.64e+15 9.396e+15 9.828e+15 9.882e+15 8.154e+15 8.91e+15 1.0476e+16 1.0152e+16 9.882e+15 7.884e+15 8.586e+15 1.0368e+16 1.0962e+16 1.0476e+16 7.506e+15 8.802e+15 1.0314e+16 1.134e+16 1.0692e+16 6.912e+15 9.18e+15 1.0692e+16 1.0746e+16 9.612e+15 6.912e+15 7.83e+15 8.586e+15 8.748e+15 8.37e+15 7.398e+15 7.56e+15 7.29e+15 8.154e+15 8.478e+15 8.046e+15 7.398e+15 6.48e+15 7.29e+15 8.694e+15 8.316e+15 7.074e+15 6.264e+15 7.56e+15 9.288e+15 7.56e+15 7.992e+15 8.748e+15 8.91e+15 9.018e+15 7.506e+15 7.938e+15 8.91e+15 7.83e+15 7.614e+15 6.912e+15 8.073e+15 9.477e+15 1.0179e+16 9.504e+15 7.614e+15 8.748e+15 1.0125e+16 1.1016e+16 1.0503e+16 8.154e+15 9.369e+15 9.909e+15 1.0503e+16 1.0071e+16 7.506e+15 9.315e+15 1.0557e+16 1.0206e+16 9.531e+15 7.749e+15 8.694e+15 9.801e+15 8.721e+15 8.316e+15 7.02e+15 9.531e+15 1.2879e+16 1.377e+16 1.1691e+16 7.479e+15 1.0746e+16 1.7442e+16 2.0412e+16 1.5255e+16 7.479e+15 1.1286e+16 1.7955e+16 2.0817e+16 1.4553e+16 7.614e+15 1.0503e+16 1.377e+16 1.485e+16 1.1826e+16 7.884e+15 9.396e+15 1.0152e+16 1.0179e+16 9.747e+15 7.911e+15 9.828e+15 1.3473e+16 1.5039e+16 1.2825e+16 7.857e+15 1.1718e+16 2.0655e+16 2.4354e+16 1.7172e+16 7.155e+15 1.1637e+16 2.1627e+16 2.565e+16 1.6983e+16 7.614e+15 1.0368e+16 1.4958e+16 1.6659e+16 1.2852e+16 7.587e+15 8.964e+15 9.558e+15 1.0044e+16 9.855e+15 8.37e+15 1.0071e+16 1.2474e+16 1.3527e+16 1.1934e+16 8.478e+15 1.2285e+16 1.7064e+16 1.89e+16 1.4364e+16 8.019e+15 1.2096e+16 1.7172e+16 1.8873e+16 1.4364e+16 7.884e+15 1.0125e+16 1.2366e+16 1.296e+16 1.1529e+16 7.479e+15 8.154e+15 8.721e+15 9.126e+15 9.288e+15 8.127e+15 9.801e+15 1.0746e+16 1.107e+16 1.0476e+16 8.127e+15 1.0557e+16 1.1583e+16 1.2555e+16 1.1259e+16 7.587e+15 9.639e+15 1.08e+16 1.1556e+16 1.1043e+16 7.506e+15 8.559e+15 8.505e+15 9.126e+15 9.963e+15 7.587e+15 7.371e+15 7.479e+15 8.505e+15 9.288e+15 </DataArray>
<DataArray type="Float32" Name="potential" format="ascii">
0 0 0 0 0 0 0 0 0 0 0 0 0 0 0 0 0 0 0 0 0 0 0 0 0 0 0 0 0 0 0 0 0 0 0 0 0 0 0 0 0 0 0 0 0 0 0 0 0 0 0 0 0 0 0 0 0 0 0 0 0 0 0 0 0 0 0 0 0 0 0 0 0 0 0 0 0 0 0 0 0 0 0 0 0 0 0 0 0 0 0 0 0 0 0 0 0 0 0 0 0 0 0 0 0 0 0 0 0 0 0 0 0 0 0 0 0 0 0 0 0 0 0 0 0 0 0 0 0 0 0 0 0 0 0 0 0 0 0 0 0 0 0 0 0 0 0 0 0 0 0 0 0 0 0 0 0 0 0 0 0 0 0 0 0 0 0 0 0 0 0 0 0 0 0 0 0 0 0 0 0 0 0 0 0 0 0 0 0 0 0 0 0 0 0 0 0 0 0 0 0 0 0 0 0 0 0 0 0 0 0 0 0 0 0 0 0 0 0 0 0 0 0 0 0 0 0 0 0 0 0 0 0 0 0 0 0 0 0 0 0 0 0 0 0 0 0 0 0 0 0 0 0 0 0 0 0 0 0 0 0 0 0 0 0 0 0 0 0 0 0 0 0 0 0 0 0 0 0 0 0 0 0 0 0 0 0 0 0 0 0 0 0 0 0 0 0 0 0 0 0 0 0 0 0 0 0 0 0 0 0 0 0 0 0 0 0 0 0 0 0 0 0 0 0 0 0 0 0 0 0 0 0 0 0 0 0 0 0 0 0 0 0 </DataArray>
<DataArray type="Float32" Name="temperature" format="ascii">