<VTKFile type="UnstructuredGrid" version="0.1" byte_order="LittleEndian">
<UnstructuredGrid>
<Piece NumberOfPoints="343" NumberOfCells="216">
<Points>
<DataArray type="Float32" NumberOfComponents="3" format="ascii">
-0.05 -0.05 -0.05 0.05 -0.05 -0.05 0.05 0.05 -0.05 -0.05 0.05 -0.05 -0.05 -0.05 0.05 0.05 -0.05 0.05 0.05 0.05 0.05 -0.05 0.05 0.05 -0.0333333 -0.05 -0.05 -0.0166667 -0.05 -0.05 0 -0.05 -0.05 0.0166667 -0.05 -0.05 0.0333333 -0.05 -0.05 0.05 -0.0333333 -0.05 0.05 -0.0166667 -0.05 0.05 0 -0.05 0.05 0.0166667 -0.05 0.05 0.0333333 -0.05 0.0333333 0.05 -0.05 0.0166667 0.05 -0.05 0 0.05 -0.05 -0.0166667 0.05 -0.05 -0.0333333 0.05 -0.05 -0.05 0.0333333 -0.05 -0.05 0.0166667 -0.05 -0.05 0 -0.05 -0.05 -0.0166667 -0.05 -0.05 -0.0333333 -0.05 -0.0333333 -0.05 0.05 -0.0166667 -0.05 0.05 0 -0.05 0.05 0.0166667 -0.05 0.05 0.0333333 -0.05 0.05 0.05 -0.0333333 0.05 0.05 -0.0166667 0.05 0.05 0 0.05 0.05 0.0166667 0.05 0.05 0.0333333 0.05 0.0333333 0.05 0.05 0.0166667 0.05 0.05 0 0.05 0.05 -0.0166667 0.05 0.05 -0.0333333 0.05 0.05 -0.05 0.0333333 0.05 -0.05 0.0166667 0.05 -0.05 0 0.05 -0.05 -0.0166667 0.05 -0.05 -0.0333333 0.05 -0.05 -0.05 -0.0333333 -0.05 -0.05 -0.0166667 -0.05 -0.05 0 -0.05 -0.05 0.0166667 -0.05 -0.05 0.0333333 0.05 -0.05 -0.0333333 0.05 -0.05 -0.0166667 0.05 -0.05 0 0.05 -0.05 0.0166667 0.05 -0.05 0.0333333 0.05 0.05 -0.0333333 0.05 0.05 -0.0166667 0.05 0.05 0 0.05 0.05 0.0166667 0.05 0.05 0.0333333 -0.05 0.05 -0.0333333 -0.05 0.05 -0.0166667 -0.05 0.05 0 -0.05 0.05 0.0166667 -0.05 0.05 0.0333333 -0.0333333 0.0333333 -0.05 -0.0333333 0.0166667 -0.05 -0.0333333 -3.55271e-18 -0.05 -0.0333333 -0.0166667 -0.05 -0.0333333 -0.0333333 -0.05 -0.0166667 0.0333333 -0.05 -0.0166667 0.0166667 -0.05 -0.0166667 -7.10543e-18 -0.05 -0.0166667 -0.0166667 -0.05 -0.0166667 -0.0333333 -0.05 1.77636e-18 0.0333333 -0.05 5.32907e-18 0.0166667 -0.05 3.55271e-18 -1.77636e-18 -0.05 7.10543e-18 -0.0166667 -0.05 3.55271e-18 -0.0333333 -0.05 0.0166667 0.0333333 -0.05 0.0166667 0.0166667 -0.05 0.0166667 -7.10543e-18 -0.05 0.0166667 -0.0166667 -0.05 0.0166667 -0.0333333 -0.05 0.0333333 0.0333333 -0.05 0.0333333 0.0166667 -0.05 0.0333333 -1.77636e-18 -0.05 0.0333333 -0.0166667 -0.05 0.0333333 -0.0333333 -0.05 -0.0333333 -0.0333333 0.05 -0.0333333 -0.0166667 0.05 -0.0333333 0 0.05 -0.0333333 0.0166667 0.05 -0.0333333 0.0333333 0.05 -0.0166667 -0.0333333 0.05 -0.0166667 -0.0166667 0.05 -0.0166667 0 0.05 -0.0166667 0.0166667 0.05 -0.0166667 0.0333333 0.05 0 -0.0333333 0.05 0 -0.0166667 0.05 0 0 0.05 0 0.0166667 0.05 0 0.0333333 0.05 0.0166667 -0.0333333 0.05 0.0166667 -0.0166667 0.05 0.0166667 0 0.05 0.0166667 0.0166667 0.05 0.0166667 0.0333333 0.05 0.0333333 -0.0333333 0.05 0.0333333 -0.0166667 0.05 0.0333333 1.77636e-18 0.05 0.0333333 0.0166667 0.05 0.0333333 0.0333333 0.05 -0.0333333 -0.05 -0.0333333 -0.0333333 -0.05 -0.0166667 -0.0333333 -0.05 0 -0.0333333 -0.05 0.0166667 -0.0333333 -0.05 0.0333333 -0.0166667 -0.05 -0.0333333 -0.0166667 -0.05 -0.0166667 -0.0166667 -0.05 0 -0.0166667 -0.05 0.0166667 -0.0166667 -0.05 0.0333333 0 -0.05 -0.0333333 0 -0.05 -0.0166667 0 -0.05 0 0 -0.05 0.0166667 0 -0.05 0.0333333 0.0166667 -0.05 -0.0333333 0.0166667 -0.05 -0.0166667 0.0166667 -0.05 0 0.0166667 -0.05 0.0166667 0.0166667 -0.05 0.0333333 0.0333333 -0.05 -0.0333333 0.0333333 -0.05 -0.0166667 0.0333333 -0.05 1.77636e-18 0.0333333 -0.05 0.0166667 0.0333333 -0.05 0.0333333 0.05 -0.0333333 -0.0333333 0.05 -0.0333333 -0.0166667 0.05 -0.0333333 0 0.05 -0.0333333 0.0166667 0.05 -0.0333333 0.0333333 0.05 -0.0166667 -0.0333333 0.05 -0.0166667 -0.0166667 0.05 -0.0166667 0 0.05 -0.0166667 0.0166667 0.05 -0.0166667 0.0333333 0.05 0 -0.0333333 0.05 0 -0.0166667 0.05 0 0 0.05 0 0.0166667 0.05 0 0.0333333 0.05 0.0166667 -0.0333333 0.05 0.0166667 -0.0166667 0.05 0.0166667 0 0.05 0.0166667 0.0166667 0.05 0.0166667 0.0333333 0.05 0.0333333 -0.0333333 0.05 0.0333333 -0.0166667 0.05 0.0333333 1.77636e-18 0.05 0.0333333 0.0166667 0.05 0.0333333 0.0333333 0.0333333 0.05 -0.0333333 0.0333333 0.05 -0.0166667 0.0333333 0.05 0 0.0333333 0.05 0.0166667 0.0333333 0.05 0.0333333 0.0166667 0.05 -0.0333333 0.0166667 0.05 -0.0166667 0.0166667 0.05 0 0.0166667 0.05 0.0166667 0.0166667 0.05 0.0333333 0 0.05 -0.0333333 0 0.05 -0.0166667 0 0.05 0 0 0.05 0.0166667 0 0.05 0.0333333 -0.0166667 0.05 -0.0333333 -0.0166667 0.05 -0.0166667 -0.0166667 0.05 0 -0.0166667 0.05 0.0166667 -0.0166667 0.05 0.0333333 -0.0333333 0.05 -0.0333333 -0.0333333 0.05 -0.0166667 -0.0333333 0.05 1.77636e-18 -0.0333333 0.05 0.0166667 -0.0333333 0.05 0.0333333 -0.05 0.0333333 -0.0333333 -0.05 0.0333333 -0.0166667 -0.05 0.0333333 0 -0.05 0.0333333 0.0166667 -0.05 0.0333333 0.0333333 -0.05 0.0166667 -0.0333333 -0.05 0.0166667 -0.0166667 -0.05 0.0166667 0 -0.05 0.0166667 0.0166667 -0.05 0.0166667 0.0333333 -0.05 0 -0.0333333 -0.05 0 -0.0166667 -0.05 0 0 -0.05 0 0.0166667 -0.05 0 0.0333333 -0.05 -0.0166667 -0.0333333 -0.05 -0.0166667 -0.0166667 -0.05 -0.0166667 0 -0.05 -0.0166667 0.0166667 -0.05 -0.0166667 0.0333333 -0.05 -0.0333333 -0.0333333 -0.05 -0.0333333 -0.0166667 -0.05 -0.0333333 1.77636e-18 -0.05 -0.0333333 0.0166667 -0.05 -0.0333333 0.0333333 -0.0333333 0.0333333 -0.0333333 -0.0333333 0.0333333 -0.0166667 -0.0333333 0.0333333 4.44089e-19 -0.0333333 0.0333333 0.0166667 -0.0333333 0.0333333 0.0333333 -0.0333333 0.0166667 -0.0333333 -0.0333333 0.0166667 -0.0166667 -0.0333333 0.0166667 -4.44089e-18 -0.0333333 0.0166667 0.0166667 -0.0333333 0.0166667 0.0333333 -0.0333333 -6.66134e-18 -0.0333333 -0.0333333 -9.76996e-18 -0.0166667 -0.0333333 -1.77636e-18 -1.77636e-18 -0.0333333 -1.77636e-18 0.0166667 -0.0333333 3.55271e-18 0.0333333 -0.0333333 -0.0166667 -0.0333333 -0.0333333 -0.0166667 -0.0166667 -0.0333333 -0.0166667 1.77636e-18 -0.0333333 -0.0166667 0.0166667 -0.0333333 -0.0166667 0.0333333 -0.0333333 -0.0333333 -0.0333333 -0.0333333 -0.0333333 -0.0166667 -0.0333333 -0.0333333 0 -0.0333333 -0.0333333 0.0166667 -0.0333333 -0.0333333 0.0333333 -0.0166667 0.0333333 -0.0333333 -0.0166667 0.0333333 -0.0166667 -0.0166667 0.0333333 2.66454e-18 -0.0166667 0.0333333 0.0166667 -0.0166667 0.0333333 0.0333333 -0.0166667 0.0166667 -0.0333333 -0.0166667 0.0166667 -0.0166667 -0.0166667 0.0166667 -1.77636e-18 -0.0166667 0.0166667 0.0166667 -0.0166667 0.0166667 0.0333333 -0.0166667 -1.06581e-17 -0.0333333 -0.0166667 -1.15463e-17 -0.0166667 -0.0166667 -3.55271e-18 0 -0.0166667 -8.88178e-18 0.0166667 -0.0166667 -1.77636e-18 0.0333333 -0.0166667 -0.0166667 -0.0333333 -0.0166667 -0.0166667 -0.0166667 -0.0166667 -0.0166667 3.55271e-18 -0.0166667 -0.0166667 0.0166667 -0.0166667 -0.0166667 0.0333333 -0.0166667 -0.0333333 -0.0333333 -0.0166667 -0.0333333 -0.0166667 -0.0166667 -0.0333333 0 -0.0166667 -0.0333333 0.0166667 -0.0166667 -0.0333333 0.0333333 3.44169e-18 0.0333333 -0.0333333 1.02141e-17 0.0333333 -0.0166667 2.66454e-18 0.0333333 -8.88178e-19 6.21725e-18 0.0333333 0.0166667 1.33227e-18 0.0333333 0.0333333 7.99361e-18 0.0166667 -0.0333333 8.43769e-18 0.0166667 -0.0166667 8.88178e-19 0.0166667 8.88178e-19 7.99361e-18 0.0166667 0.0166667 3.55271e-18 0.0166667 0.0333333 3.55271e-18 -1.77636e-18 -0.0333333 9.76996e-18 -9.76996e-18 -0.0166667 0 -8.88178e-19 -8.88178e-19 8.88178e-18 -8.88178e-18 0.0166667 1.77636e-18 -1.77636e-18 0.0333333 1.02141e-17 -0.0166667 -0.0333333 1.24345e-17 -0.0166667 -0.0166667 3.55271e-18 -0.0166667 -1.77636e-18 8.88178e-18 -0.0166667 0.0166667 3.55271e-18 -0.0166667 0.0333333 5.77316e-18 -0.0333333 -0.0333333 4.44089e-18 -0.0333333 -0.0166667 1.77636e-18 -0.0333333 1.77636e-18 5.32907e-18 -0.0333333 0.0166667 0 -0.0333333 0.0333333 0.0166667 0.0333333 -0.0333333 0.0166667 0.0333333 -0.0166667 0.0166667 0.0333333 -2.66454e-18 0.0166667 0.0333333 0.0166667 0.0166667 0.0333333 0.0333333 0.0166667 0.0166667 -0.0333333 0.0166667 0.0166667 -0.0166667 0.0166667 0.0166667 3.10862e-18 0.0166667 0.0166667 0.0166667 0.0166667 0.0166667 0.0333333 0.0166667 -1.24345e-17 -0.0333333 0.0166667 -1.37668e-17 -0.0166667 0.0166667 -3.55271e-18 -1.77636e-18 0.0166667 -6.21725e-18 0.0166667 0.0166667 -8.88178e-19 0.0333333 0.0166667 -0.0166667 -0.0333333 0.0166667 -0.0166667 -0.0166667 0.0166667 -0.0166667 2.66454e-18 0.0166667 -0.0166667 0.0166667 0.0166667 -0.0166667 0.0333333 0.0166667 -0.0333333 -0.0333333 0.0166667 -0.0333333 -0.0166667 0.0166667 -0.0333333 0 0.0166667 -0.0333333 0.0166667 0.0166667 -0.0333333 0.0333333 0.0333333 0.0333333 -0.0333333 0.0333333 0.0333333 -0.0166667 0.0333333 0.0333333 3.33067e-19 0.0333333 0.0333333 0.0166667 0.0333333 0.0333333 0.0333333 0.0333333 0.0166667 -0.0333333 0.0333333 0.0166667 -0.0166667 0.0333333 0.0166667 1.11022e-18 0.0333333 0.0166667 0.0166667 0.0333333 0.0166667 0.0333333 0.0333333 -4.44089e-18 -0.0333333 0.0333333 -4.21885e-18 -0.0166667 0.0333333 8.88178e-19 8.88178e-19 0.0333333 -1.33227e-18 0.0166667 0.0333333 3.55271e-18 0.0333333 0.0333333 -0.0166667 -0.0333333 0.0333333 -0.0166667 -0.0166667 0.0333333 -0.0166667 2.22045e-18 0.0333333 -0.0166667 0.0166667 0.0333333 -0.0166667 0.0333333 0.0333333 -0.0333333 -0.0333333 0.0333333 -0.0333333 -0.0166667 0.0333333 -0.0333333 2.22045e-18 0.0333333 -0.0333333 0.0166667 0.0333333 -0.0333333 0.0333333 </DataArray>
</Points>
<Cells>
<DataArray type="Int32" Name="connectivity" format="ascii">
68 22 3 23 218 188 63 193 218 188 63 193 219 189 64 194 219 189 64 194 220 190 65 195 220 190 65 195 221 191 66 196 221 191 66 196 222 192 67 197 222 192 67 197 97 42 7 43 69 68 23 24 223 218 193 198 223 218 193 198 224 219 194 199 224 219 194 199 225 220 195 200 225 220 195 200 226 221 196 201 226 221 196 201 227 222 197 202 227 222 197 202 96 97 43 44 70 69 24 25 228 223 198 203 228 223 198 203 229 224 199 204 229 224 199 204 230 225 200 205 230 225 200 205 231 226 201 206 231 226 201 206 232 227 202 207 232 227 202 207 95 96 44 45 71 70 25 26 233 228 203 208 233 228 203 208 234 229 204 209 234 229 204 209 235 230 205 210 235 230 205 210 236 231 206 211 236 231 206 211 237 232 207 212 237 232 207 212 94 95 45 46 72 71 26 27 238 233 208 213 238 233 208 213 239 234 209 214 239 234 209 214 240 235 210 215 240 235 210 215 241 236 211 216 241 236 211 216 242 237 212 217 242 237 212 217 93 94 46 47 8 72 27 0 118 238 213 48 118 238 213 48 119 239 214 49 119 239 214 49 120 240 215 50 120 240 215 50 121 241 216 51 121 241 216 51 122 242 217 52 122 242 217 52 28 93 47 4 73 21 22 68 243 183 188 218 243 183 188 218 244 184 189 219 244 184 189 219 245 185 190 220 245 185 190 220 246 186 191 221 246 186 191 221 247 187 192 222 247 187 192 222 102 41 42 97 74 73 68 69 248 243 218 223 248 243 218 223 249 244 219 224 249 244 219 224 250 245 220 225 250 245 220 225 251 246 221 226 251 246 221 226 252 247 222 227 252 247 222 227 101 102 97 96 75 74 69 70 253 248 223 228 253 248 223 228 254 249 224 229 254 249 224 229 255 250 225 230 255 250 225 230 256 251 226 231 256 251 226 231 257 252 227 232 257 252 227 232 100 101 96 95 76 75 70 71 258 253 228 233 258 253 228 233 259 254 229 234 259 254 229 234 260 255 230 235 260 255 230 235 261 256 231 236 261 256 231 236 262 257 232 237 262 257 232 237 99 100 95 94 77 76 71 72 263 258 233 238 263 258 233 238 264 259 234 239 264 259 234 239 265 260 235 240 265 260 235 240 266 261 236 241 266 261 236 241 267 262 237 242 267 262 237 242 98 99 94 93 9 77 72 8 123 263 238 118 123 263 238 118 124 264 239 119 124 264 239 119 125 265 240 120 125 265 240 120 126 266 241 121 126 266 241 121 127 267 242 122 127 267 242 122 29 98 93 28 78 20 21 73 268 178 183 243 268 178 183 243 269 179 184 244 269 179 184 244 270 180 185 245 270 180 185 245 271 181 186 246 271 181 186 246 272 182 187 247 272 182 187 247 107 40 41 102 79 78 73 74 273 268 243 248 273 268 243 248 274 269 244 249 274 269 244 249 275 270 245 250 275 270 245 250 276 271 246 251 276 271 246 251 277 272 247 252 277 272 247 252 106 107 102 101 80 79 74 75 278 273 248 253 278 273 248 253 279 274 249 254 279 274 249 254 280 275 250 255 280 275 250 255 281 276 251 256 281 276 251 256 282 277 252 257 282 277 252 257 105 106 101 100 81 80 75 76 283 278 253 258 283 278 253 258 284 279 254 259 284 279 254 259 285 280 255 260 285 280 255 260 286 281 256 261 286 281 256 261 287 282 257 262 287 282 257 262 104 105 100 99 82 81 76 77 288 283 258 263 288 283 258 263 289 284 259 264 289 284 259 264 290 285 260 265 290 285 260 265 291 286 261 266 291 286 261 266 292 287 262 267 292 287 262 267 103 104 99 98 10 82 77 9 128 288 263 123 128 288 263 123 129 289 264 124 129 289 264 124 130 290 265 125 130 290 265 125 131 291 266 126 131 291 266 126 132 292 267 127 132 292 267 127 30 103 98 29 83 19 20 78 293 173 178 268 293 173 178 268 294 174 179 269 294 174 179 269 295 175 180 270 295 175 180 270 296 176 181 271 296 176 181 271 297 177 182 272 297 177 182 272 112 39 40 107 84 83 78 79 298 293 268 273 298 293 268 273 299 294 269 274 299 294 269 274 300 295 270 275 300 295 270 275 301 296 271 276 301 296 271 276 302 297 272 277 302 297 272 277 111 112 107 106 85 84 79 80 303 298 273 278 303 298 273 278 304 299 274 279 304 299 274 279 305 300 275 280 305 300 275 280 306 301 276 281 306 301 276 281 307 302 277 282 307 302 277 282 110 111 106 105 86 85 80 81 308 303 278 283 308 303 278 283 309 304 279 284 309 304 279 284 310 305 280 285 310 305 280 285 311 306 281 286 311 306 281 286 312 307 282 287 312 307 282 287 109 110 105 104 87 86 81 82 313 308 283 288 313 308 283 288 314 309 284 289 314 309 284 289 315 310 285 290 315 310 285 290 316 311 286 291 316 311 286 291 317 312 287 292 317 312 287 292 108 109 104 103 11 87 82 10 133 313 288 128 133 313 288 128 134 314 289 129 134 314 289 129 135 315 290 130 135 315 290 130 136 316 291 131 136 316 291 131 137 317 292 132 137 317 292 132 31 108 103 30 88 18 19 83 318 168 173 293 318 168 173 293 319 169 174 294 319 169 174 294 320 170 175 295 320 170 175 295 321 171 176 296 321 171 176 296 322 172 177 297 322 172 177 297 117 38 39 112 89 88 83 84 323 318 293 298 323 318 293 298 324 319 294 299 324 319 294 299 325 320 295 300 325 320 295 300 326 321 296 301 326 321 296 301 327 322 297 302 327 322 297 302 116 117 112 111 90 89 84 85 328 323 298 303 328 323 298 303 329 324 299 304 329 324 299 304 330 325 300 305 330 325 300 305 331 326 301 306 331 326 301 306 332 327 302 307 332 327 302 307 115 116 111 110 91 90 85 86 333 328 303 308 333 328 303 308 334 329 304 309 334 329 304 309 335 330 305 310 335 330 305 310 336 331 306 311 336 331 306 311 337 332 307 312 337 332 307 312 114 115 110 109 92 91 86 87 338 333 308 313 338 333 308 313 339 334 309 314 339 334 309 314 340 335 310 315 340 335 310 315 341 336 311 316 341 336 311 316 342 337 312 317 342 337 312 317 113 114 109 108 12 92 87 11 138 338 313 133 138 338 313 133 139 339 314 134 139 339 314 134 140 340 315 135 140 340 315 135 141 341 316 136 141 341 316 136 142 342 317 137 142 342 317 137 32 113 108 31 17 2 18 88 163 58 168 318 163 58 168 318 164 59 169 319 164 59 169 319 165 60 170 320 165 60 170 320 166 61 171 321 166 61 171 321 167 62 172 322 167 62 172 322 37 6 38 117 16 17 88 89 158 163 318 323 158 163 318 323 159 164 319 324 159 164 319 324 160 165 320 325 160 165 320 325 161 166 321 326 161 166 321 326 162 167 322 327 162 167 322 327 36 37 117 116 15 16 89 90 153 158 323 328 153 158 323 328 154 159 324 329 154 159 324 329 155 160 325 330 155 160 325 330 156 161 326 331 156 161 326 331 157 162 327 332 157 162 327 332 35 36 116 115 14 15 90 91 148 153 328 333 148 153 328 333 149 154 329 334 149 154 329 334 150 155 330 335 150 155 330 335 151 156 331 336 151 156 331 336 152 157 332 337 152 157 332 337 34 35 115 114 13 14 91 92 143 148 333 338 143 148 333 338 144 149 334 339 144 149 334 339 145 150 335 340 145 150 335 340 146 151 336 341 146 151 336 341 147 152 337 342 147 152 337 342 33 34 114 113 1 13 92 12 53 143 338 138 53 143 338 138 54 144 339 139 54 144 339 139 55 145 340 140 55 145 340 140 56 146 341 141 56 146 341 141 57 147 342 142 57 147 342 142 5 33 113 32 </DataArray>
<DataArray type="Int32" Name="offsets" format="ascii">
8 16 24 32 40 48 56 64 72 80 88 96 104 112 120 128 136 144 152 160 168 176 184 192 200 208 216 224 232 240 248 256 264 272 280 288 296 304 312 320 328 336 344 352 360 368 376 384 392 400 408 416 424 432 440 448 456 464 472 480 488 496 504 512 520 528 536 544 552 560 568 576 584 592 600 608 616 624 632 640 648 656 664 672 680 688 696 704 712 720 728 736 744 752 760 768 776 784 792 800 808 816 824 832 840 848 856 864 872 880 888 896 904 912 920 928 936 944 952 960 968 976 984 992 1000 1008 1016 1024 1032 1040 1048 1056 1064 1072 1080 1088 1096 1104 1112 1120 1128 1136 1144 1152 1160 1168 1176 1184 1192 1200 1208 1216 1224 1232 1240 1248 1256 1264 1272 1280 1288 1296 1304 1312 1320 1328 1336 1344 1352 1360 1368 1376 1384 1392 1400 1408 1416 1424 1432 1440 1448 1456 1464 1472 1480 1488 1496 1504 1512 1520 1528 1536 1544 1552 1560 1568 1576 1584 1592 1600 1608 1616 1624 1632 1640 1648 1656 1664 1672 1680 1688 1696 1704 1712 1720 1728 </DataArray>
<DataArray type="UInt8" Name="types" format="ascii">
12 12 12 12 12 12 12 12 12 12 12 12 12 12 12 12 12 12 12 12 12 12 12 12 12 12 12 12 12 12 12 12 12 12 12 12 12 12 12 12 12 12 12 12 12 12 12 12 12 12 12 12 12 12 12 12 12 12 12 12 12 12 12 12 12 12 12 12 12 12 12 12 12 12 12 12 12 12 12 12 12 12 12 12 12 12 12 12 12 12 12 12 12 12 12 12 12 12 12 12 12 12 12 12 12 12 12 12 12 12 12 12 12 12 12 12 12 12 12 12 12 12 12 12 12 12 12 12 12 12 12 12 12 12 12 12 12 12 12 12 12 12 12 12 12 12 12 12 12 12 12 12 12 12 12 12 12 12 12 12 12 12 12 12 12 12 12 12 12 12 12 12 12 12 12 12 12 12 12 12 12 12 12 12 12 12 12 12 12 12 12 12 12 12 12 12 12 12 12 12 12 12 12 12 12 12 12 12 12 12 12 12 12 12 12 12 </DataArray>
</Cells>
<CellData Scalars="scalars">
<DataArray type="Float32" Name="number_density" format="ascii">
6.912e+15 4.752e+15 7.992e+15 7.776e+15 6.696e+15 8.856e+15 3.888e+15 9.936e+15 6.264e+15 5.184e+15 9.504e+15 7.776e+15 6.48e+15 7.128e+15 5.832e+15 4.968e+15 6.264e+15 9.504e+15 5.616e+15 7.776e+15 6.264e+15 7.128e+15 8.208e+15 8.856e+15 7.128e+15 5.616e+15 9.72e+15 1.0584e+16 7.56e+15 7.56e+15 8.856e+15 6.48e+15 6.264e+15 5.832e+15 5.832e+15 6.048e+15 6.264e+15 6.696e+15 8.424e+15 9.072e+15 9.936e+15 7.56e+15 3.888e+15 6.48e+15 9.936e+15 1.7064e+16 1.5336e+16 1.2096e+16 4.968e+15 8.208e+15 1.296e+16 1.8144e+16 1.4256e+16 1.0152e+16 3.456e+15 9.72e+15 1.3176e+16 1.296e+16 1.296e+16 9.288e+15 6.048e+15 8.208e+15 1.08e+16 1.5336e+16 8.64e+15 1.1448e+16 7.344e+15 7.992e+15 7.776e+15 7.776e+15 6.912e+15 7.992e+15 3.672e+15 7.992e+15 9.72e+15 1.2096e+16 1.1664e+16 1.1664e+16 3.456e+15 7.992e+15 1.4256e+16 2.7648e+16 2.3112e+16 1.3392e+16 3.24e+15 1.08e+16 1.512e+16 4.1688e+16 4.968e+16 1.4256e+16 3.672e+15 8.64e+15 1.4256e+16 2.8512e+16 2.4192e+16 9.936e+15 6.264e+15 9.504e+15 1.2312e+16 1.3176e+16 1.4904e+16 9.72e+15 3.24e+15 5.832e+15 6.264e+15 7.56e+15 7.776e+15 8.208e+15 5.184e+15 7.776e+15 7.128e+15 1.0584e+16 9.936e+15 1.188e+16 6.048e+15 7.56e+15 1.404e+16 2.4624e+16 2.4192e+16 1.404e+16 3.888e+15 7.992e+15 1.4688e+16 4.4928e+16 3.8232e+16 1.512e+16 3.888e+15 1.0584e+16 1.2312e+16 2.5272e+16 2.16e+16 1.188e+16 4.968e+15 8.64e+15 8.208e+15 1.08e+16 1.2312e+16 9.072e+15 5.616e+15 6.264e+15 6.696e+15 7.128e+15 7.992e+15 8.208e+15 5.832e+15 8.856e+15 9.936e+15 1.3392e+16 1.188e+16 1.0368e+16 6.696e+15 7.992e+15 1.404e+16 1.4688e+16 1.512e+16 9.504e+15 4.752e+15 1.0368e+16 1.2096e+16 2.0304e+16 2.0304e+16 1.1232e+16 5.616e+15 1.0584e+16 9.936e+15 1.2744e+16 1.4472e+16 1.1448e+16 6.264e+15 9.072e+15 9.72e+15 7.56e+15 9.288e+15 7.776e+15 4.968e+15 6.048e+15 6.48e+15 7.128e+15 8.64e+15 9.72e+15 8.424e+15 6.696e+15 8.208e+15 9.072e+15 8.424e+15 1.0368e+16 5.184e+15 7.776e+15 7.776e+15 9.072e+15 1.08e+16 7.776e+15 5.184e+15 8.208e+15 7.344e+15 8.208e+15 8.64e+15 8.424e+15 4.104e+15 5.616e+15 4.32e+15 6.264e+15 7.344e+15 6.912e+15 6.48e+15 6.48e+15 6.048e+15 5.616e+15 6.696e+15 9.072e+15 8.208e+15 6.048e+15 4.536e+15 7.128e+15 8.208e+15 9.504e+15 </DataArray>
<DataArray type="Float32" Name="potential" format="ascii">
0 0 0 0 0 0 0 0 0 0 0 0 0 0 0 0 0 0 0 0 0 0 0 0 0 0 0 0 0 0 0 0 0 0 0 0 0 0 0 0 0 0 0 0 0 0 0 0 0 0 0 0 0 0 0 0 0 0 0 0 0 0 0 0 0 0 0 0 0 0 0 0 0 0 0 0 0 0 0 0 0 0 0 0 0 0 0 0 0 0 0 0 0 0 0 0 0 0 0 0 0 0 0 0 0 0 0 0 0 0 0 0 0 0 0 0 0 0 0 0 0 0 0 0 0 0 0 0 0 0 0 0 0 0 0 0 0 0 0 0 0 0 0 0 0 0 0 0 0 0 0 0 0 0 0 0 0 0 0 0 0 0 0 0 0 0 0 0 0 0 0 0 0 0 0 0 0 0 0 0 0 0 0 0 0 0 0 0 0 0 0 0 0 0 0 0 0 0 0 0 0 0 0 0 0 0 0 0 0 0 0 0 0 0 0 0 </DataArray>
<DataArray type="Float32" Name="temperature" format="ascii">
233.223 306.285 285.449 306.926 315.801 289.996 131.671 265.814 278.64 348.235 367.395 314.59 192.9 307.738 427.378 625.103 371.349 246.475 250.582 268.647 326.69 381.883 391.829 287.362 206.751 224.199 291.84 267.967 292.981 233.561 218.101 329.357 243.13 285.449 245.349 237.246 204.001 259.809 374.094 405.76 253.702 313.962 230.327 287.756 407.499 529.45 417.498 330.558 255.962 367.529 529.251 537.739 488.68 342.173 342.162 292.419 388.876 534.955 485.112 389.516 374.276 317.658 415.922 444.678 345.674 254.485 236.643 307.584 249.678 328.113 213.503 283.874 272.043 266.512 317.809 362.391 368.319 343.786 193.73 304.301 486.799 738.113 697.208 368.411 289.757 421.102 552.332 990.391 944.789 411.902 344.054 372.457 541.222 842.979 769.148 367.453 420.444 303.107 409.245 477.149 390.489 295.787 211.733 263.723 241.893 361.577 327.584 281.027 204.484 221.281 321.544 427.935 399.306 295.581 264.261 342.61 513.218 740.131 677.638 339.858 356.36 273.476 513.379 960.91 868.818 417.372 355.57 399.712 537.66 787.291 706.661 340.783 229.266 340.458 427.067 394.978 399.19 254.335 376.645 268.036 430.148 318.047 372.303 257.367 273.841 303.608 375.101 374.494 278.673 236.949 250.684 327.406 379.294 365.3 392.404 285.652 331.541 288.099 426.398 591.946 517.302 329.197 229.474 358.192 481.271 692.477 397.86 385.084 313.347 291.706 261.875 375.335 352.066 239.387 225.579 264.509 338.646 337.994 263.701 237.85 298.607 226.387 252.361 367.769 281.751 327.152 288.938 270.477 304.593 286.02 347.716 318.481 223.323 323.633 329.8 447.648 346.399 281.149 249.651 249.509 276.783 320.718 311.766 254.751 209.838 264.514 296.952 295.673 242.978 255.096 245.025 245.622 212.606 220.67 250.085 228.149 </DataArray>
<DataArray type="Float32" Name="velocity" format="ascii">
180.386 197.532 341.773 251.464 137.201 57.8381 298.655 378.138 494.843 428.838 141.13 148.715 281.297 480.611 614.973 429.534 277.047 150.777 317.967 439.157 532.168 471.194 329.798 242.285 204.498 316.469 379.836 378.345 220.345 209.434 112.095 171.026 294.916 229.011 193.183 178.461 254.337 368.71 516.427 431.466 275.367 143.372 372.051 578.409 680.721 552.076 421.671 195.879 506.861 808.595 893.758 771.096 439.556 254.975 562.911 726.251 843.59 744.774 434.14 365.46 313.389 517.88 621.765 521.23 412.481 252.581 188.154 330.734 362.249 366.167 236.782 114.941 374.746 577.25 640.891 546.695 213.106 110.468 446.586 838.317 898.904 703.33 324.868 130.768 677.281 1043.71 1252.98 924.348 536.731 208.995 593.318 924.449 1138.37 933.971 515.873 255.374 421.849 696.199 826.899 725.255 500.111 320.664 299.548 447.228 517.649 337.438 204.141 158.64 325.833 513.894 555.912 437.418 168.185 27.5251 455.938 744.268 841.52 715.862 294.662 65.5366 555.543 1057.68 1177.6 915.068 392.333 142.586 580.786 990.772 1180.21 971.283 521.899 338.987 458.72 751.995 898.374 845.77 480.569 333.822 288.343 430.246 589.011 498.825 333.419 136.023 252.707 356.264 385.109 318.782 81.7069 78.0452 339.239 537.579 740.513 493.402 254.117 125.436 445.673 741.783 943.625 703.916 302.029 243.302 482.754 769.235 916.91 819.277 473.576 263.72 304.62 584.99 690.32 667.469 436.488 290.433 279.727 372.627 447.349 358.325 339.141 175.448 131.716 197.831 242.415 208.44 58.4198 125.796 210.783 371.756 448.935 310.779 201.16 92.724 279.134 478.914 552.689 447.949 263.292 129.797 347.612 514.208 583.098 479.946 274.629 176.399 208.482 413.48 478.235 452.042 331.812 96.7442 105.473 220.726 308.71 316.116 173.711 137.958 </DataArray>
<DataArray type="Float32" Name="E_field" format="ascii">
0 0 0 0 0 0 0 0 0 0 0 0 0 0 0 0 0 0 0 0 0 0 0 0 0 0 0 0 0 0 0 0 0 0 0 0 0 0 0 0 0 0 0 0 0 0 0 0 0 0 0 0 0 0 0 0 0 0 0 0 0 0 0 0 0 0 0 0 0 0 0 0 0 0 0 0 0 0 0 0 0 0 0 0 0 0 0 0 0 0 0 0 0 0 0 0 0 0 0 0 0 0 0 0 0 0 0 0 0 0 0 0 0 0 0 0 0 0 0 0 0 0 0 0 0 0 0 0 0 0 0 0 0 0 0 0 0 0 0 0 0 0 0 0 0 0 0 0 0 0 0 0 0 0 0 0 0 0 0 0 0 0 0 0 0 0 0 0 0 0 0 0 0 0 0 0 0 0 0 0 0 0 0 0 0 0 0 0 0 0 0 0 0 0 0 0 0 0 0 0 0 0 0 0 0 0 0 0 0 0 0 0 0 0 0 0 </DataArray>
</CellData>
<PointData Scalars="number_density">
<DataArray type="Float32" Name="number_density" format="ascii">
8.856e+15 8.208e+15 8.424e+15 6.912e+15 6.048e+15 9.504e+15 1.0368e+16 8.856e+15 8.1e+15 5.292e+15 4.428e+15 5.292e+15 6.588e+15 7.344e+15 5.292e+15 4.644e+15 5.184e+15 6.804e+15 7.128e+15 5.508e+15 4.428e+15 4.968e+15 6.588e+15 5.4e+15 5.184e+15 6.048e+15 6.372e+15 7.992e+15 7.02e+15 8.1e+15 8.208e+15 8.964e+15 9.612e+15 9.288e+15 7.992e+15 7.668e+15 8.1e+15 9.072e+15 1.0368e+16 1.1124e+16 1.1772e+16 9.612e+15 8.208e+15 8.316e+15 8.64e+15 9.18e+15 8.208e+15 6.804e+15 7.668e+15 6.372e+15 6.048e+15 5.832e+15 5.94e+15 7.128e+15 5.292e+15 5.832e+15 7.668e+15 8.856e+15 7.56e+15 7.452e+15 8.64e+15 8.748e+15 9.396e+15 5.832e+15 6.372e+15 7.884e+15 7.236e+15 7.776e+15 5.238e+15 4.806e+15 5.13e+15 5.562e+15 7.344e+15 4.32e+15 3.888e+15 3.834e+15 4.86e+15 5.724e+15 4.59e+15 4.158e+15 3.672e+15 4.698e+15 5.022e+15 5.94e+15 5.346e+15 4.536e+15 5.184e+15 5.454e+15 6.534e+15 5.454e+15 4.914e+15 5.616e+15 6.48e+15 8.262e+15 9.288e+15 9.45e+15 9.882e+15 9.072e+15 9.342e+15 1.0098e+16 1.0908e+16 1.2474e+16 1.1178e+16 8.802e+15 1.0152e+16 1.2798e+16 1.4202e+16 1.2744e+16 8.694e+15 1.0044e+16 1.242e+16 1.2474e+16 1.1448e+16 9.018e+15 8.802e+15 9.504e+15 9.234e+15 9.504e+15 7.668e+15 7.128e+15 6.912e+15 6.588e+15 6.696e+15 6.102e+15 6.966e+15 7.344e+15 7.506e+15 7.722e+15 5.238e+15 6.264e+15 6.912e+15 7.614e+15 8.046e+15 5.724e+15 6.372e+15 6.858e+15 7.722e+15 8.64e+15 6.318e+15 5.778e+15 6.318e+15 7.776e+15 9.018e+15 6.804e+15 5.778e+15 5.832e+15 6.912e+15 8.37e+15 5.67e+15 5.616e+15 5.562e+15 6.48e+15 7.506e+15 5.778e+15 6.372e+15 6.534e+15 7.614e+15 7.83e+15 6.588e+15 7.776e+15 8.1e+15 9.18e+15 8.91e+15 7.02e+15 7.614e+15 8.532e+15 9.342e+15 9.342e+15 7.452e+15 8.424e+15 1.0152e+16 1.0692e+16 1.026e+16 6.912e+15 8.424e+15 1.026e+16 1.1448e+16 1.1016e+16 6.156e+15 8.154e+15 9.882e+15 1.107e+16 1.1286e+16 6.156e+15 8.208e+15 9.828e+15 1.0692e+16 1.0206e+16 6.156e+15 6.966e+15 8.316e+15 8.37e+15 8.262e+15 6.372e+15 7.236e+15 6.804e+15 7.29e+15 8.208e+15 6.858e+15 7.29e+15 5.562e+15 6.48e+15 8.262e+15 6.75e+15 6.75e+15 6.048e+15 6.642e+15 8.208e+15 6.534e+15 7.344e+15 8.424e+15 8.37e+15 8.046e+15 7.02e+15 7.02e+15 8.1e+15 7.452e+15 6.75e+15 6.102e+15 7.56e+15 8.964e+15 1.0071e+16 9.72e+15 6.372e+15 8.343e+15 1.0044e+16 1.134e+16 1.0611e+16 6.669e+15 8.883e+15 1.0179e+16 1.0611e+16 9.936e+15 6.696e+15 8.91e+15 1.0746e+16 1.0422e+16 9.315e+15 7.209e+15 7.857e+15 9.261e+15 8.559e+15 7.749e+15 5.805e+15 8.937e+15 1.3527e+16 1.5741e+16 1.3095e+16 6.129e+15 1.0719e+16 1.9602e+16 2.5866e+16 1.9035e+16 6.588e+15 1.161e+16 1.9602e+16 2.5299e+16 1.809e+16 6.939e+15 1.0827e+16 1.5066e+16 1.6335e+16 1.2636e+16 6.804e+15 8.586e+15 1.0125e+16 1.026e+16 9.45e+15 6.21e+15 9.558e+15 1.5012e+16 1.7982e+16 1.4985e+16 6.372e+15 1.1556e+16 2.4624e+16 3.4263e+16 2.4003e+16 6.588e+15 1.1799e+16 2.4597e+16 3.4263e+16 2.3112e+16 7.02e+15 1.0557e+16 1.5606e+16 1.8846e+16 1.4202e+16 6.291e+15 7.965e+15 9.018e+15 1.0206e+16 9.774e+15 6.993e+15 9.666e+15 1.3554e+16 1.5552e+16 1.3365e+16 6.912e+15 1.1097e+16 1.9926e+16 2.5299e+16 1.8468e+16 7.209e+15 1.107e+16 1.9035e+16 2.4732e+16 1.8036e+16 7.452e+15 9.882e+15 1.2069e+16 1.4256e+16 1.2231e+16 6.48e+15 7.641e+15 7.965e+15 8.856e+15 9.126e+15 7.182e+15 8.91e+15 1.0773e+16 1.1556e+16 1.053e+16 7.02e+15 9.45e+15 1.1691e+16 1.3392e+16 1.1475e+16 6.804e+15 8.559e+15 1.0152e+16 1.2285e+16 1.1097e+16 6.777e+15 7.722e+15 7.776e+15 8.748e+15 9.126e+15 6.696e+15 6.804e+15 6.777e+15 7.533e+15 8.613e+15 </DataArray>
<DataArray type="Float32" Name="potential" format="ascii">
0 0 0 0 0 0 0 0 0 0 0 0 0 0 0 0 0 0 0 0 0 0 0 0 0 0 0 0 0 0 0 0 0 0 0 0 0 0 0 0 0 0 0 0 0 0 0 0 0 0 0 0 0 0 0 0 0 0 0 0 0 0 0 0 0 0 0 0 0 0 0 0 0 0 0 0 0 0 0 0 0 0 0 0 0 0 0 0 0 0 0 0 0 0 0 0 0 0 0 0 0 0 0 0 0 0 0 0 0 0 0 0 0 0 0 0 0 0 0 0 0 0 0 0 0 0 0 0 0 0 0 0 0 0 0 0 0 0 0 0 0 0 0 0 0 0 0 0 0 0 0 0 0 0 0 0 0 0 0 0 0 0 0 0 0 0 0 0 0 0 0 0 0 0 0 0 0 0 0 0 0 0 0 0 0 0 0 0 0 0 0 0 0 0 0 0 0 0 0 0 0 0 0 0 0 0 0 0 0 0 0 0 0 0 0 0 0 0 0 0 0 0 0 0 0 0 0 0 0 0 0 0 0 0 0 0 0 0 0 0 0 0 0 0 0 0 0 0 0 0 0 0 0 0 0 0 0 0 0 0 0 0 0 0 0 0 0 0 0 0 0 0 0 0 0 0 0 0 0 0 0 0 0 0 0 0 0 0 0 0 0 0 0 0 0 0 0 0 0 0 0 0 0 0 0 0 0 0 0 0 0 0 0 0 0 0 0 0 0 0 0 0 0 0 0 0 0 0 0 0 0 0 0 0 0 0 0 0 0 0 0 0 0 </DataArray>
<DataArray type="Float32" Name="temperature" format="ascii">