<VTKFile type="UnstructuredGrid" version="0.1" byte_order="LittleEndian">
<UnstructuredGrid>
<Piece NumberOfPoints="343" NumberOfCells="216">
<Points>
<DataArray type="Float32" NumberOfComponents="3" format="ascii">
-0.05 -0.05 -0.05 0.05 -0.05 -0.05 0.05 0.05 -0.05 -0.05 0.05 -0.05 -0.05 -0.05 0.05 0.05 -0.05 0.05 0.05 0.05 0.05 -0.05 0.05 0.05 -0.0333333 -0.05 -0.05 -0.0166667 -0.05 -0.05 0 -0.05 -0.05 0.0166667 -0.05 -0.05 0.0333333 -0.05 -0.05 0.05 -0.0333333 -0.05 0.05 -0.0166667 -0.05 0.05 0 -0.05 0.05 0.0166667 -0.05 0.05 0.0333333 -0.05 0.0333333 0.05 -0.05 0.0166667 0.05 -0.05 0 0.05 -0.05 -0.0166667 0.05 -0.05 -0.0333333 0.05 -0.05 -0.05 0.0333333 -0.05 -0.05 0.0166667 -0.05 -0.05 0 -0.05 -0.05 -0.0166667 -0.05 -0.05 -0.0333333 -0.05 -0.0333333 -0.05 0.05 -0.0166667 -0.05 0.05 0 -0.05 0.05 0.0166667 -0.05 0.05 0.0333333 -0.05 0.05 0.05 -0.0333333 0.05 0.05 -0.0166667 0.05 0.05 0 0.05 0.05 0.0166667 0.05 0.05 0.0333333 0.05 0.0333333 0.05 0.05 0.0166667 0.05 0.05 0 0.05 0.05 -0.0166667 0.05 0.05 -0.0333333 0.05 0.05 -0.05 0.0333333 0.05 -0.05 0.0166667 0.05 -0.05 0 0.05 -0.05 -0.0166667 0.05 -0.05 -0.0333333 0.05 -0.05 -0.05 -0.0333333 -0.05 -0.05 -0.0166667 -0.05 -0.05 0 -0.05 -0.05 0.0166667 -0.05 -0.05 0.0333333 0.05 -0.05 -0.0333333 0.05 -0.05 -0.0166667 0.05 -0.05 0 0.05 -0.05 0.0166667 0.05 -0.05 0.0333333 0.05 0.05 -0.0333333 0.05 0.05 -0.0166667 0.05 0.05 0 0.05 0.05 0.0166667 0.05 0.05 0.0333333 -0.05 0.05 -0.0333333 -0.05 0.05 -0.0166667 -0.05 0.05 0 -0.05 0.05 0.0166667 -0.05 0.05 0.0333333 -0.0333333 0.0333333 -0.05 -0.0333333 0.0166667 -0.05 -0.0333333 -3.55271e-18 -0.05 -0.0333333 -0.0166667 -0.05 -0.0333333 -0.0333333 -0.05 -0.0166667 0.0333333 -0.05 -0.0166667 0.0166667 -0.05 -0.0166667 -7.10543e-18 -0.05 -0.0166667 -0.0166667 -0.05 -0.0166667 -0.0333333 -0.05 1.77636e-18 0.0333333 -0.05 5.32907e-18 0.0166667 -0.05 3.55271e-18 -1.77636e-18 -0.05 7.10543e-18 -0.0166667 -0.05 3.55271e-18 -0.0333333 -0.05 0.0166667 0.0333333 -0.05 0.0166667 0.0166667 -0.05 0.0166667 -7.10543e-18 -0.05 0.0166667 -0.0166667 -0.05 0.0166667 -0.0333333 -0.05 0.0333333 0.0333333 -0.05 0.0333333 0.0166667 -0.05 0.0333333 -1.77636e-18 -0.05 0.0333333 -0.0166667 -0.05 0.0333333 -0.0333333 -0.05 -0.0333333 -0.0333333 0.05 -0.0333333 -0.0166667 0.05 -0.0333333 0 0.05 -0.0333333 0.0166667 0.05 -0.0333333 0.0333333 0.05 -0.0166667 -0.0333333 0.05 -0.0166667 -0.0166667 0.05 -0.0166667 0 0.05 -0.0166667 0.0166667 0.05 -0.0166667 0.0333333 0.05 0 -0.0333333 0.05 0 -0.0166667 0.05 0 0 0.05 0 0.0166667 0.05 0 0.0333333 0.05 0.0166667 -0.0333333 0.05 0.0166667 -0.0166667 0.05 0.0166667 0 0.05 0.0166667 0.0166667 0.05 0.0166667 0.0333333 0.05 0.0333333 -0.0333333 0.05 0.0333333 -0.0166667 0.05 0.0333333 1.77636e-18 0.05 0.0333333 0.0166667 0.05 0.0333333 0.0333333 0.05 -0.0333333 -0.05 -0.0333333 -0.0333333 -0.05 -0.0166667 -0.0333333 -0.05 0 -0.0333333 -0.05 0.0166667 -0.0333333 -0.05 0.0333333 -0.0166667 -0.05 -0.0333333 -0.0166667 -0.05 -0.0166667 -0.0166667 -0.05 0 -0.0166667 -0.05 0.0166667 -0.0166667 -0.05 0.0333333 0 -0.05 -0.0333333 0 -0.05 -0.0166667 0 -0.05 0 0 -0.05 0.0166667 0 -0.05 0.0333333 0.0166667 -0.05 -0.0333333 0.0166667 -0.05 -0.0166667 0.0166667 -0.05 0 0.0166667 -0.05 0.0166667 0.0166667 -0.05 0.0333333 0.0333333 -0.05 -0.0333333 0.0333333 -0.05 -0.0166667 0.0333333 -0.05 1.77636e-18 0.0333333 -0.05 0.0166667 0.0333333 -0.05 0.0333333 0.05 -0.0333333 -0.0333333 0.05 -0.0333333 -0.0166667 0.05 -0.0333333 0 0.05 -0.0333333 0.0166667 0.05 -0.0333333 0.0333333 0.05 -0.0166667 -0.0333333 0.05 -0.0166667 -0.0166667 0.05 -0.0166667 0 0.05 -0.0166667 0.0166667 0.05 -0.0166667 0.0333333 0.05 0 -0.0333333 0.05 0 -0.0166667 0.05 0 0 0.05 0 0.0166667 0.05 0 0.0333333 0.05 0.0166667 -0.0333333 0.05 0.0166667 -0.0166667 0.05 0.0166667 0 0.05 0.0166667 0.0166667 0.05 0.0166667 0.0333333 0.05 0.0333333 -0.0333333 0.05 0.0333333 -0.0166667 0.05 0.0333333 1.77636e-18 0.05 0.0333333 0.0166667 0.05 0.0333333 0.0333333 0.0333333 0.05 -0.0333333 0.0333333 0.05 -0.0166667 0.0333333 0.05 0 0.0333333 0.05 0.0166667 0.0333333 0.05 0.0333333 0.0166667 0.05 -0.0333333 0.0166667 0.05 -0.0166667 0.0166667 0.05 0 0.0166667 0.05 0.0166667 0.0166667 0.05 0.0333333 0 0.05 -0.0333333 0 0.05 -0.0166667 0 0.05 0 0 0.05 0.0166667 0 0.05 0.0333333 -0.0166667 0.05 -0.0333333 -0.0166667 0.05 -0.0166667 -0.0166667 0.05 0 -0.0166667 0.05 0.0166667 -0.0166667 0.05 0.0333333 -0.0333333 0.05 -0.0333333 -0.0333333 0.05 -0.0166667 -0.0333333 0.05 1.77636e-18 -0.0333333 0.05 0.0166667 -0.0333333 0.05 0.0333333 -0.05 0.0333333 -0.0333333 -0.05 0.0333333 -0.0166667 -0.05 0.0333333 0 -0.05 0.0333333 0.0166667 -0.05 0.0333333 0.0333333 -0.05 0.0166667 -0.0333333 -0.05 0.0166667 -0.0166667 -0.05 0.0166667 0 -0.05 0.0166667 0.0166667 -0.05 0.0166667 0.0333333 -0.05 0 -0.0333333 -0.05 0 -0.0166667 -0.05 0 0 -0.05 0 0.0166667 -0.05 0 0.0333333 -0.05 -0.0166667 -0.0333333 -0.05 -0.0166667 -0.0166667 -0.05 -0.0166667 0 -0.05 -0.0166667 0.0166667 -0.05 -0.0166667 0.0333333 -0.05 -0.0333333 -0.0333333 -0.05 -0.0333333 -0.0166667 -0.05 -0.0333333 1.77636e-18 -0.05 -0.0333333 0.0166667 -0.05 -0.0333333 0.0333333 -0.0333333 0.0333333 -0.0333333 -0.0333333 0.0333333 -0.0166667 -0.0333333 0.0333333 4.44089e-19 -0.0333333 0.0333333 0.0166667 -0.0333333 0.0333333 0.0333333 -0.0333333 0.0166667 -0.0333333 -0.0333333 0.0166667 -0.0166667 -0.0333333 0.0166667 -4.44089e-18 -0.0333333 0.0166667 0.0166667 -0.0333333 0.0166667 0.0333333 -0.0333333 -6.66134e-18 -0.0333333 -0.0333333 -9.76996e-18 -0.0166667 -0.0333333 -1.77636e-18 -1.77636e-18 -0.0333333 -1.77636e-18 0.0166667 -0.0333333 3.55271e-18 0.0333333 -0.0333333 -0.0166667 -0.0333333 -0.0333333 -0.0166667 -0.0166667 -0.0333333 -0.0166667 1.77636e-18 -0.0333333 -0.0166667 0.0166667 -0.0333333 -0.0166667 0.0333333 -0.0333333 -0.0333333 -0.0333333 -0.0333333 -0.0333333 -0.0166667 -0.0333333 -0.0333333 0 -0.0333333 -0.0333333 0.0166667 -0.0333333 -0.0333333 0.0333333 -0.0166667 0.0333333 -0.0333333 -0.0166667 0.0333333 -0.0166667 -0.0166667 0.0333333 2.66454e-18 -0.0166667 0.0333333 0.0166667 -0.0166667 0.0333333 0.0333333 -0.0166667 0.0166667 -0.0333333 -0.0166667 0.0166667 -0.0166667 -0.0166667 0.0166667 -1.77636e-18 -0.0166667 0.0166667 0.0166667 -0.0166667 0.0166667 0.0333333 -0.0166667 -1.06581e-17 -0.0333333 -0.0166667 -1.15463e-17 -0.0166667 -0.0166667 -3.55271e-18 0 -0.0166667 -8.88178e-18 0.0166667 -0.0166667 -1.77636e-18 0.0333333 -0.0166667 -0.0166667 -0.0333333 -0.0166667 -0.0166667 -0.0166667 -0.0166667 -0.0166667 3.55271e-18 -0.0166667 -0.0166667 0.0166667 -0.0166667 -0.0166667 0.0333333 -0.0166667 -0.0333333 -0.0333333 -0.0166667 -0.0333333 -0.0166667 -0.0166667 -0.0333333 0 -0.0166667 -0.0333333 0.0166667 -0.0166667 -0.0333333 0.0333333 3.44169e-18 0.0333333 -0.0333333 1.02141e-17 0.0333333 -0.0166667 2.66454e-18 0.0333333 -8.88178e-19 6.21725e-18 0.0333333 0.0166667 1.33227e-18 0.0333333 0.0333333 7.99361e-18 0.0166667 -0.0333333 8.43769e-18 0.0166667 -0.0166667 8.88178e-19 0.0166667 8.88178e-19 7.99361e-18 0.0166667 0.0166667 3.55271e-18 0.0166667 0.0333333 3.55271e-18 -1.77636e-18 -0.0333333 9.76996e-18 -9.76996e-18 -0.0166667 0 -8.88178e-19 -8.88178e-19 8.88178e-18 -8.88178e-18 0.0166667 1.77636e-18 -1.77636e-18 0.0333333 1.02141e-17 -0.0166667 -0.0333333 1.24345e-17 -0.0166667 -0.0166667 3.55271e-18 -0.0166667 -1.77636e-18 8.88178e-18 -0.0166667 0.0166667 3.55271e-18 -0.0166667 0.0333333 5.77316e-18 -0.0333333 -0.0333333 4.44089e-18 -0.0333333 -0.0166667 1.77636e-18 -0.0333333 1.77636e-18 5.32907e-18 -0.0333333 0.0166667 0 -0.0333333 0.0333333 0.0166667 0.0333333 -0.0333333 0.0166667 0.0333333 -0.0166667 0.0166667 0.0333333 -2.66454e-18 0.0166667 0.0333333 0.0166667 0.0166667 0.0333333 0.0333333 0.0166667 0.0166667 -0.0333333 0.0166667 0.0166667 -0.0166667 0.0166667 0.0166667 3.10862e-18 0.0166667 0.0166667 0.0166667 0.0166667 0.0166667 0.0333333 0.0166667 -1.24345e-17 -0.0333333 0.0166667 -1.37668e-17 -0.0166667 0.0166667 -3.55271e-18 -1.77636e-18 0.0166667 -6.21725e-18 0.0166667 0.0166667 -8.88178e-19 0.0333333 0.0166667 -0.0166667 -0.0333333 0.0166667 -0.0166667 -0.0166667 0.0166667 -0.0166667 2.66454e-18 0.0166667 -0.0166667 0.0166667 0.0166667 -0.0166667 0.0333333 0.0166667 -0.0333333 -0.0333333 0.0166667 -0.0333333 -0.0166667 0.0166667 -0.0333333 0 0.0166667 -0.0333333 0.0166667 0.0166667 -0.0333333 0.0333333 0.0333333 0.0333333 -0.0333333 0.0333333 0.0333333 -0.0166667 0.0333333 0.0333333 3.33067e-19 0.0333333 0.0333333 0.0166667 0.0333333 0.0333333 0.0333333 0.0333333 0.0166667 -0.0333333 0.0333333 0.0166667 -0.0166667 0.0333333 0.0166667 1.11022e-18 0.0333333 0.0166667 0.0166667 0.0333333 0.0166667 0.0333333 0.0333333 -4.44089e-18 -0.0333333 0.0333333 -4.21885e-18 -0.0166667 0.0333333 8.88178e-19 8.88178e-19 0.0333333 -1.33227e-18 0.0166667 0.0333333 3.55271e-18 0.0333333 0.0333333 -0.0166667 -0.0333333 0.0333333 -0.0166667 -0.0166667 0.0333333 -0.0166667 2.22045e-18 0.0333333 -0.0166667 0.0166667 0.0333333 -0.0166667 0.0333333 0.0333333 -0.0333333 -0.0333333 0.0333333 -0.0333333 -0.0166667 0.0333333 -0.0333333 2.22045e-18 0.0333333 -0.0333333 0.0166667 0.0333333 -0.0333333 0.0333333 </DataArray>
</Points>
<Cells>
<DataArray type="Int32" Name="connectivity" format="ascii">
68 22 3 23 218 188 63 193 218 188 63 193 219 189 64 194 219 189 64 194 220 190 65 195 220 190 65 195 221 191 66 196 221 191 66 196 222 192 67 197 222 192 67 197 97 42 7 43 69 68 23 24 223 218 193 198 223 218 193 198 224 219 194 199 224 219 194 199 225 220 195 200 225 220 195 200 226 221 196 201 226 221 196 201 227 222 197 202 227 222 197 202 96 97 43 44 70 69 24 25 228 223 198 203 228 223 198 203 229 224 199 204 229 224 199 204 230 225 200 205 230 225 200 205 231 226 201 206 231 226 201 206 232 227 202 207 232 227 202 207 95 96 44 45 71 70 25 26 233 228 203 208 233 228 203 208 234 229 204 209 234 229 204 209 235 230 205 210 235 230 205 210 236 231 206 211 236 231 206 211 237 232 207 212 237 232 207 212 94 95 45 46 72 71 26 27 238 233 208 213 238 233 208 213 239 234 209 214 239 234 209 214 240 235 210 215 240 235 210 215 241 236 211 216 241 236 211 216 242 237 212 217 242 237 212 217 93 94 46 47 8 72 27 0 118 238 213 48 118 238 213 48 119 239 214 49 119 239 214 49 120 240 215 50 120 240 215 50 121 241 216 51 121 241 216 51 122 242 217 52 122 242 217 52 28 93 47 4 73 21 22 68 243 183 188 218 243 183 188 218 244 184 189 219 244 184 189 219 245 185 190 220 245 185 190 220 246 186 191 221 246 186 191 221 247 187 192 222 247 187 192 222 102 41 42 97 74 73 68 69 248 243 218 223 248 243 218 223 249 244 219 224 249 244 219 224 250 245 220 225 250 245 220 225 251 246 221 226 251 246 221 226 252 247 222 227 252 247 222 227 101 102 97 96 75 74 69 70 253 248 223 228 253 248 223 228 254 249 224 229 254 249 224 229 255 250 225 230 255 250 225 230 256 251 226 231 256 251 226 231 257 252 227 232 257 252 227 232 100 101 96 95 76 75 70 71 258 253 228 233 258 253 228 233 259 254 229 234 259 254 229 234 260 255 230 235 260 255 230 235 261 256 231 236 261 256 231 236 262 257 232 237 262 257 232 237 99 100 95 94 77 76 71 72 263 258 233 238 263 258 233 238 264 259 234 239 264 259 234 239 265 260 235 240 265 260 235 240 266 261 236 241 266 261 236 241 267 262 237 242 267 262 237 242 98 99 94 93 9 77 72 8 123 263 238 118 123 263 238 118 124 264 239 119 124 264 239 119 125 265 240 120 125 265 240 120 126 266 241 121 126 266 241 121 127 267 242 122 127 267 242 122 29 98 93 28 78 20 21 73 268 178 183 243 268 178 183 243 269 179 184 244 269 179 184 244 270 180 185 245 270 180 185 245 271 181 186 246 271 181 186 246 272 182 187 247 272 182 187 247 107 40 41 102 79 78 73 74 273 268 243 248 273 268 243 248 274 269 244 249 274 269 244 249 275 270 245 250 275 270 245 250 276 271 246 251 276 271 246 251 277 272 247 252 277 272 247 252 106 107 102 101 80 79 74 75 278 273 248 253 278 273 248 253 279 274 249 254 279 274 249 254 280 275 250 255 280 275 250 255 281 276 251 256 281 276 251 256 282 277 252 257 282 277 252 257 105 106 101 100 81 80 75 76 283 278 253 258 283 278 253 258 284 279 254 259 284 279 254 259 285 280 255 260 285 280 255 260 286 281 256 261 286 281 256 261 287 282 257 262 287 282 257 262 104 105 100 99 82 81 76 77 288 283 258 263 288 283 258 263 289 284 259 264 289 284 259 264 290 285 260 265 290 285 260 265 291 286 261 266 291 286 261 266 292 287 262 267 292 287 262 267 103 104 99 98 10 82 77 9 128 288 263 123 128 288 263 123 129 289 264 124 129 289 264 124 130 290 265 125 130 290 265 125 131 291 266 126 131 291 266 126 132 292 267 127 132 292 267 127 30 103 98 29 83 19 20 78 293 173 178 268 293 173 178 268 294 174 179 269 294 174 179 269 295 175 180 270 295 175 180 270 296 176 181 271 296 176 181 271 297 177 182 272 297 177 182 272 112 39 40 107 84 83 78 79 298 293 268 273 298 293 268 273 299 294 269 274 299 294 269 274 300 295 270 275 300 295 270 275 301 296 271 276 301 296 271 276 302 297 272 277 302 297 272 277 111 112 107 106 85 84 79 80 303 298 273 278 303 298 273 278 304 299 274 279 304 299 274 279 305 300 275 280 305 300 275 280 306 301 276 281 306 301 276 281 307 302 277 282 307 302 277 282 110 111 106 105 86 85 80 81 308 303 278 283 308 303 278 283 309 304 279 284 309 304 279 284 310 305 280 285 310 305 280 285 311 306 281 286 311 306 281 286 312 307 282 287 312 307 282 287 109 110 105 104 87 86 81 82 313 308 283 288 313 308 283 288 314 309 284 289 314 309 284 289 315 310 285 290 315 310 285 290 316 311 286 291 316 311 286 291 317 312 287 292 317 312 287 292 108 109 104 103 11 87 82 10 133 313 288 128 133 313 288 128 134 314 289 129 134 314 289 129 135 315 290 130 135 315 290 130 136 316 291 131 136 316 291 131 137 317 292 132 137 317 292 132 31 108 103 30 88 18 19 83 318 168 173 293 318 168 173 293 319 169 174 294 319 169 174 294 320 170 175 295 320 170 175 295 321 171 176 296 321 171 176 296 322 172 177 297 322 172 177 297 117 38 39 112 89 88 83 84 323 318 293 298 323 318 293 298 324 319 294 299 324 319 294 299 325 320 295 300 325 320 295 300 326 321 296 301 326 321 296 301 327 322 297 302 327 322 297 302 116 117 112 111 90 89 84 85 328 323 298 303 328 323 298 303 329 324 299 304 329 324 299 304 330 325 300 305 330 325 300 305 331 326 301 306 331 326 301 306 332 327 302 307 332 327 302 307 115 116 111 110 91 90 85 86 333 328 303 308 333 328 303 308 334 329 304 309 334 329 304 309 335 330 305 310 335 330 305 310 336 331 306 311 336 331 306 311 337 332 307 312 337 332 307 312 114 115 110 109 92 91 86 87 338 333 308 313 338 333 308 313 339 334 309 314 339 334 309 314 340 335 310 315 340 335 310 315 341 336 311 316 341 336 311 316 342 337 312 317 342 337 312 317 113 114 109 108 12 92 87 11 138 338 313 133 138 338 313 133 139 339 314 134 139 339 314 134 140 340 315 135 140 340 315 135 141 341 316 136 141 341 316 136 142 342 317 137 142 342 317 137 32 113 108 31 17 2 18 88 163 58 168 318 163 58 168 318 164 59 169 319 164 59 169 319 165 60 170 320 165 60 170 320 166 61 171 321 166 61 171 321 167 62 172 322 167 62 172 322 37 6 38 117 16 17 88 89 158 163 318 323 158 163 318 323 159 164 319 324 159 164 319 324 160 165 320 325 160 165 320 325 161 166 321 326 161 166 321 326 162 167 322 327 162 167 322 327 36 37 117 116 15 16 89 90 153 158 323 328 153 158 323 328 154 159 324 329 154 159 324 329 155 160 325 330 155 160 325 330 156 161 326 331 156 161 326 331 157 162 327 332 157 162 327 332 35 36 116 115 14 15 90 91 148 153 328 333 148 153 328 333 149 154 329 334 149 154 329 334 150 155 330 335 150 155 330 335 151 156 331 336 151 156 331 336 152 157 332 337 152 157 332 337 34 35 115 114 13 14 91 92 143 148 333 338 143 148 333 338 144 149 334 339 144 149 334 339 145 150 335 340 145 150 335 340 146 151 336 341 146 151 336 341 147 152 337 342 147 152 337 342 33 34 114 113 1 13 92 12 53 143 338 138 53 143 338 138 54 144 339 139 54 144 339 139 55 145 340 140 55 145 340 140 56 146 341 141 56 146 341 141 57 147 342 142 57 147 342 142 5 33 113 32 </DataArray>
<DataArray type="Int32" Name="offsets" format="ascii">
8 16 24 32 40 48 56 64 72 80 88 96 104 112 120 128 136 144 152 160 168 176 184 192 200 208 216 224 232 240 248 256 264 272 280 288 296 304 312 320 328 336 344 352 360 368 376 384 392 400 408 416 424 432 440 448 456 464 472 480 488 496 504 512 520 528 536 544 552 560 568 576 584 592 600 608 616 624 632 640 648 656 664 672 680 688 696 704 712 720 728 736 744 752 760 768 776 784 792 800 808 816 824 832 840 848 856 864 872 880 888 896 904 912 920 928 936 944 952 960 968 976 984 992 1000 1008 1016 1024 1032 1040 1048 1056 1064 1072 1080 1088 1096 1104 1112 1120 1128 1136 1144 1152 1160 1168 1176 1184 1192 1200 1208 1216 1224 1232 1240 1248 1256 1264 1272 1280 1288 1296 1304 1312 1320 1328 1336 1344 1352 1360 1368 1376 1384 1392 1400 1408 1416 1424 1432 1440 1448 1456 1464 1472 1480 1488 1496 1504 1512 1520 1528 1536 1544 1552 1560 1568 1576 1584 1592 1600 1608 1616 1624 1632 1640 1648 1656 1664 1672 1680 1688 1696 1704 1712 1720 1728 </DataArray>
<DataArray type="UInt8" Name="types" format="ascii">
12 12 12 12 12 12 12 12 12 12 12 12 12 12 12 12 12 12 12 12 12 12 12 12 12 12 12 12 12 12 12 12 12 12 12 12 12 12 12 12 12 12 12 12 12 12 12 12 12 12 12 12 12 12 12 12 12 12 12 12 12 12 12 12 12 12 12 12 12 12 12 12 12 12 12 12 12 12 12 12 12 12 12 12 12 12 12 12 12 12 12 12 12 12 12 12 12 12 12 12 12 12 12 12 12 12 12 12 12 12 12 12 12 12 12 12 12 12 12 12 12 12 12 12 12 12 12 12 12 12 12 12 12 12 12 12 12 12 12 12 12 12 12 12 12 12 12 12 12 12 12 12 12 12 12 12 12 12 12 12 12 12 12 12 12 12 12 12 12 12 12 12 12 12 12 12 12 12 12 12 12 12 12 12 12 12 12 12 12 12 12 12 12 12 12 12 12 12 12 12 12 12 12 12 12 12 12 12 12 12 12 12 12 12 12 12 </DataArray>
</Cells>
<CellData Scalars="scalars">
<DataArray type="Float32" Name="number_density" format="ascii">
7.776e+15 7.992e+15 8.856e+15 8.208e+15 9.072e+15 9.504e+15 7.56e+15 8.856e+15 8.424e+15 1.0152e+16 7.776e+15 9.936e+15 9.288e+15 9.504e+15 7.128e+15 6.48e+15 8.64e+15 1.2744e+16 8.856e+15 1.1448e+16 7.344e+15 8.856e+15 8.208e+15 9.072e+15 9.936e+15 6.696e+15 1.1448e+16 1.0584e+16 9.72e+15 1.1016e+16 9.504e+15 7.992e+15 9.504e+15 7.992e+15 9.504e+15 6.912e+15 8.424e+15 9.072e+15 9.936e+15 1.0152e+16 9.72e+15 9.072e+15 7.56e+15 8.208e+15 1.08e+16 1.1016e+16 1.188e+16 1.1232e+16 7.776e+15 1.1232e+16 9.288e+15 1.3392e+16 1.2312e+16 9.072e+15 9.288e+15 1.08e+16 1.1664e+16 1.2528e+16 1.296e+16 8.64e+15 8.424e+15 8.856e+15 1.1232e+16 1.1016e+16 7.992e+15 1.1232e+16 1.1448e+16 8.856e+15 1.1232e+16 1.08e+16 9.288e+15 9.72e+15 6.696e+15 9.936e+15 1.1232e+16 1.0584e+16 1.0584e+16 9.504e+15 7.776e+15 8.64e+15 1.1448e+16 1.2312e+16 1.296e+16 1.0152e+16 7.992e+15 1.08e+16 1.5768e+16 1.4904e+16 1.4904e+16 1.2528e+16 7.344e+15 1.0584e+16 1.5336e+16 1.4904e+16 1.512e+16 9.504e+15 6.912e+15 7.992e+15 1.08e+16 9.504e+15 1.2096e+16 9.504e+15 7.56e+15 9.72e+15 8.424e+15 7.56e+15 1.0152e+16 9.936e+15 1.0152e+16 9.72e+15 9.936e+15 1.0152e+16 1.1016e+16 1.2312e+16 8.208e+15 1.0368e+16 1.1232e+16 1.296e+16 1.188e+16 1.296e+16 6.912e+15 1.0584e+16 1.4904e+16 1.2528e+16 1.6416e+16 1.0368e+16 8.208e+15 7.56e+15 1.3608e+16 1.4472e+16 1.1448e+16 1.188e+16 1.1232e+16 9.288e+15 9.504e+15 1.3176e+16 9.936e+15 1.0368e+16 6.912e+15 9.936e+15 7.344e+15 9.504e+15 7.56e+15 9.288e+15 8.64e+15 9.504e+15 9.72e+15 1.2096e+16 8.856e+15 9.936e+15 9.072e+15 1.2312e+16 1.1232e+16 1.0584e+16 1.2744e+16 9.72e+15 9.936e+15 1.3392e+16 1.0152e+16 1.1448e+16 1.1016e+16 9.072e+15 9.72e+15 7.56e+15 1.3392e+16 1.1016e+16 1.1448e+16 1.1448e+16 8.856e+15 1.0584e+16 7.992e+15 7.992e+15 9.072e+15 9.72e+15 8.424e+15 7.56e+15 8.208e+15 9.936e+15 1.0368e+16 9.936e+15 9.936e+15 8.856e+15 1.0584e+16 9.936e+15 9.504e+15 1.1448e+16 7.776e+15 1.1232e+16 1.08e+16 9.072e+15 1.0152e+16 8.424e+15 8.856e+15 8.424e+15 9.504e+15 1.2096e+16 9.72e+15 1.08e+16 9.504e+15 5.4e+15 9.288e+15 9.504e+15 8.64e+15 1.08e+16 9.936e+15 8.856e+15 9.504e+15 7.776e+15 9.504e+15 1.08e+16 1.08e+16 6.696e+15 9.288e+15 8.424e+15 9.504e+15 1.188e+16 </DataArray>
<DataArray type="Float32" Name="potential" format="ascii">
0 0 0 0 0 0 0 0 0 0 0 0 0 0 0 0 0 0 0 0 0 0 0 0 0 0 0 0 0 0 0 0 0 0 0 0 0 0 0 0 0 0 0 0 0 0 0 0 0 0 0 0 0 0 0 0 0 0 0 0 0 0 0 0 0 0 0 0 0 0 0 0 0 0 0 0 0 0 0 0 0 0 0 0 0 0 0 0 0 0 0 0 0 0 0 0 0 0 0 0 0 0 0 0 0 0 0 0 0 0 0 0 0 0 0 0 0 0 0 0 0 0 0 0 0 0 0 0 0 0 0 0 0 0 0 0 0 0 0 0 0 0 0 0 0 0 0 0 0 0 0 0 0 0 0 0 0 0 0 0 0 0 0 0 0 0 0 0 0 0 0 0 0 0 0 0 0 0 0 0 0 0 0 0 0 0 0 0 0 0 0 0 0 0 0 0 0 0 0 0 0 0 0 0 0 0 0 0 0 0 0 0 0 0 0 0 </DataArray>
<DataArray type="Float32" Name="temperature" format="ascii">
244.642 338.971 272.634 293.355 352.805 289.054 236.579 294.665 383.414 369.247 352.533 326.021 256.261 310.334 298.342 301.801 333.607 328.948 268.636 334.585 301.524 402.088 282.249 276.814 203.756 281.196 264.442 231.965 309.798 338.113 295.22 316.968 284.273 300.392 271.06 305.527 227.464 263.116 340.381 296.231 279.336 301.212 298.937 348.841 328.895 339.501 281.964 317.756 295.046 284.448 388.122 311.5 372.644 251.824 297.36 293.148 317.553 365.63 290.548 296.136 404.785 254.27 293.384 238.125 256.889 311.378 318.778 258.077 279.627 360.15 233.459 244.816 218.617 302.967 300.368 314.094 285.464 342.701 252.438 236.11 397.062 410.833 346.405 246.426 321.506 374.046 351.02 451.672 361.804 343.331 281.387 358.578 341.918 426.202 322.212 328.537 239.173 309.698 353.314 389.771 294.826 277.73 408.738 282.962 296.477 380.113 341.613 356.062 262.754 248.266 366.48 333.826 351.072 250.108 202.411 342.517 349.268 356.241 365.109 298.678 255.582 311.52 430.758 475.095 406.03 297.182 297.583 276.474 384.727 449.954 439.054 307.954 281.571 373.564 355.789 290.754 312.764 319.268 255.668 360.1 286.138 305.067 276.859 226.752 295.009 310.038 315.529 266.678 279.977 251.087 265.32 279.687 324.822 335.017 329.714 317.43 293.251 302.999 364.123 318.922 282.886 288.602 315.839 325.571 290.713 378.478 304.383 300.875 331.384 296.554 352.472 229.089 350.553 252.862 264.192 221.696 277.005 270.176 288.108 273.827 298.92 282.402 329.01 292.529 292.764 333.829 312.681 331.666 290.316 330.028 270.413 276.15 273.341 287.188 243.041 281.418 317.146 306.465 249.615 202.229 306.843 350.987 237.647 267.795 270.095 282.661 288.164 266.583 257.709 312.279 287.451 272.475 280.316 302.276 261.35 222.673 </DataArray>
<DataArray type="Float32" Name="velocity" format="ascii">
83.1681 160.301 168.009 153.654 108.107 65.5367 144.182 200.006 322.382 256.703 168.121 97.823 240.492 247.259 355.619 255.834 165.148 50.5888 179.92 294.75 329.23 213.672 120.047 117.906 95.4371 123.645 175.114 208.171 161.809 127.696 66.8311 92.5853 179.742 116.525 167.982 110.952 167.944 291.64 226.641 232.317 83.2574 39.0554 180.084 344.422 330.013 293.892 207.989 113.239 267.507 413.955 525.985 422.851 206.834 139.158 281.81 373.905 495.348 429.748 224.097 130.966 179.099 334.832 345.882 342.395 206.423 140.393 81.8138 168.023 245.879 190.046 153.034 51.7588 214.846 269.658 334.717 281.736 58.9931 116.74 347.488 403.262 473.627 333.15 135.155 74.1313 406.204 585.663 737.672 417.307 148.074 132.064 331.124 570.491 662.826 484.168 237.117 161.87 222.417 393.615 475.86 412.876 213.752 213.73 106.933 297.916 259.972 161.39 145.009 40.6861 214.666 253.165 322.825 240.973 139.219 60.0284 247.767 437.562 561.004 283.048 70.7373 44.1364 426.607 595.259 687.357 364.046 101.973 99.1608 431.9 540.67 643.669 551.63 236.763 166.766 323.315 495.744 501.123 465.509 236.453 165.424 171.675 252.558 339.705 314.774 153.376 126.653 140.044 210.549 263.532 129.869 26.9868 77.3689 167.19 332.307 306.435 273.836 165.168 92.7572 291.234 406.982 479.351 307.282 135.5 108.917 284.568 408.405 499.123 436.498 265.926 131.505 111.597 350.423 447.632 364.546 238.487 189.739 130.703 221.962 275.878 224.701 135.061 133.782 43.7315 108.252 137.213 97.0938 57.4513 87.6178 134.26 220.549 208.001 159.23 109.387 41.8357 108.774 279.399 274.643 232.188 189.154 105.082 238.648 355.158 343.096 300.632 197.263 69.0923 116.561 213.658 264.808 239.844 154.824 62.0794 43.7793 126.914 216.323 110.196 70.5849 122.904 </DataArray>
<DataArray type="Float32" Name="E_field" format="ascii">
0 0 0 0 0 0 0 0 0 0 0 0 0 0 0 0 0 0 0 0 0 0 0 0 0 0 0 0 0 0 0 0 0 0 0 0 0 0 0 0 0 0 0 0 0 0 0 0 0 0 0 0 0 0 0 0 0 0 0 0 0 0 0 0 0 0 0 0 0 0 0 0 0 0 0 0 0 0 0 0 0 0 0 0 0 0 0 0 0 0 0 0 0 0 0 0 0 0 0 0 0 0 0 0 0 0 0 0 0 0 0 0 0 0 0 0 0 0 0 0 0 0 0 0 0 0 0 0 0 0 0 0 0 0 0 0 0 0 0 0 0 0 0 0 0 0 0 0 0 0 0 0 0 0 0 0 0 0 0 0 0 0 0 0 0 0 0 0 0 0 0 0 0 0 0 0 0 0 0 0 0 0 0 0 0 0 0 0 0 0 0 0 0 0 0 0 0 0 0 0 0 0 0 0 0 0 0 0 0 0 0 0 0 0 0 0 </DataArray>
</CellData>
<PointData Scalars="number_density">
<DataArray type="Float32" Name="number_density" format="ascii">
9.504e+15 1.08e+16 9.936e+15 7.776e+15 6.912e+15 1.188e+16 1.1448e+16 9.504e+15 1.0476e+16 9.504e+15 7.236e+15 7.668e+15 9.612e+15 1.0368e+16 9.72e+15 9.18e+15 8.316e+15 8.856e+15 9.288e+15 9.396e+15 8.424e+15 7.56e+15 8.1e+15 7.668e+15 8.424e+15 9.072e+15 9.396e+15 9.72e+15 8.316e+15 9.828e+15 9.612e+15 9.612e+15 1.0908e+16 1.134e+16 1.08e+16 1.08e+16 9.612e+15 9.936e+15 1.0692e+16 1.1124e+16 1.0908e+16 9.288e+15 9.288e+15 9.72e+15 1.134e+16 1.0908e+16 1.0044e+16 8.964e+15 8.748e+15 8.748e+15 8.748e+15 8.748e+15 8.208e+15 8.748e+15 7.992e+15 8.856e+15 8.964e+15 1.0692e+16 9.396e+15 9.72e+15 1.026e+16 9.72e+15 1.0476e+16 7.884e+15 8.424e+15 8.532e+15 8.64e+15 9.288e+15 7.83e+15 8.046e+15 8.802e+15 9.126e+15 9.828e+15 7.614e+15 7.776e+15 8.1e+15 7.992e+15 8.586e+15 8.208e+15 7.722e+15 7.614e+15 8.424e+15 8.154e+15 9.018e+15 8.532e+15 8.694e+15 9.504e+15 8.856e+15 8.856e+15 8.91e+15 9.504e+15 9.504e+15 9.504e+15 9.72e+15 9.99e+15 9.882e+15 1.0746e+16 9.936e+15 1.0098e+16 9.72e+15 9.936e+15 1.0746e+16 9.99e+15 9.774e+15 1.0314e+16 1.107e+16 1.1502e+16 1.1232e+16 9.828e+15 1.0854e+16 1.0692e+16 1.053e+16 1.1232e+16 1.0584e+16 1.0692e+16 1.053e+16 9.504e+15 9.882e+15 9.45e+15 9.396e+15 9.882e+15 9.396e+15 8.856e+15 9.396e+15 9.558e+15 9.504e+15 9.45e+15 9.774e+15 8.532e+15 8.856e+15 8.208e+15 8.694e+15 9.234e+15 8.208e+15 8.262e+15 8.748e+15 9.342e+15 9.288e+15 8.37e+15 7.938e+15 8.964e+15 9.558e+15 1.0422e+16 9.072e+15 8.586e+15 8.748e+15 8.802e+15 1.0422e+16 8.424e+15 8.262e+15 9.018e+15 8.856e+15 9.936e+15 8.046e+15 8.154e+15 1.0098e+16 9.99e+15 9.99e+15 9.072e+15 9.99e+15 1.0368e+16 1.026e+16 9.774e+15 9.45e+15 1.0368e+16 1.0098e+16 9.666e+15 9.882e+15 9.234e+15 9.666e+15 1.0584e+16 1.0098e+16 9.936e+15 9.504e+15 9.72e+15 1.0476e+16 1.053e+16 1.053e+16 9.126e+15 1.0206e+16 1.0476e+16 1.0584e+16 1.0854e+16 8.532e+15 1.0044e+16 1.0476e+16 1.026e+16 9.72e+15 8.316e+15 8.964e+15 9.288e+15 9.288e+15 9.342e+15 8.046e+15 8.532e+15 8.91e+15 8.802e+15 9.072e+15 8.802e+15 8.478e+15 8.046e+15 8.262e+15 9.774e+15 9.774e+15 8.856e+15 7.452e+15 8.046e+15 9.666e+15 9.234e+15 9.234e+15 9.558e+15 9.342e+15 9.504e+15 8.532e+15 8.91e+15 9.882e+15 9.45e+15 9.288e+15 8.181e+15 9.018e+15 9.693e+15 9.747e+15 9.774e+15 8.748e+15 9.18e+15 9.585e+15 1.0206e+16 1.0449e+16 9.774e+15 9.801e+15 9.585e+15 1.0422e+16 1.0206e+16 9.288e+15 9.936e+15 1.0584e+16 1.0233e+16 9.855e+15 8.964e+15 9.477e+15 1.0476e+16 9.612e+15 9.423e+15 8.289e+15 9.909e+15 1.0935e+16 1.1151e+16 1.0638e+16 8.748e+15 1.0773e+16 1.2366e+16 1.296e+16 1.188e+16 9.477e+15 1.1934e+16 1.3473e+16 1.3878e+16 1.188e+16 8.775e+15 1.0908e+16 1.2123e+16 1.2015e+16 1.0881e+16 8.721e+15 9.639e+15 1.0071e+16 9.801e+15 9.99e+15 8.937e+15 1.0314e+16 1.1232e+16 1.1556e+16 1.1421e+16 8.91e+15 1.1718e+16 1.3257e+16 1.3608e+16 1.2771e+16 8.748e+15 1.2393e+16 1.4553e+16 1.4337e+16 1.2771e+16 8.64e+15 1.0584e+16 1.2663e+16 1.2582e+16 1.1232e+16 8.694e+15 9.126e+15 9.477e+15 9.936e+15 9.855e+15 9.747e+15 1.0503e+16 1.0989e+16 1.1286e+16 1.1178e+16 1.0098e+16 1.1772e+16 1.188e+16 1.2447e+16 1.1772e+16 9.234e+15 1.1394e+16 1.269e+16 1.2474e+16 1.1637e+16 9.126e+15 9.936e+15 1.1394e+16 1.107e+16 1.0665e+16 9.099e+15 8.802e+15 9.207e+15 9.693e+15 9.531e+15 9.666e+15 1.053e+16 1.0503e+16 1.0368e+16 1.0098e+16 1.0125e+16 1.0881e+16 1.0611e+16 1.0854e+16 1.0206e+16 9.099e+15 9.639e+15 1.08e+16 1.0611e+16 1.0368e+16 8.802e+15 9.072e+15 9.558e+15 9.369e+15 1.0179e+16 8.964e+15 8.586e+15 8.64e+15 9.072e+15 1.0098e+16 </DataArray>
<DataArray type="Float32" Name="potential" format="ascii">
0 0 0 0 0 0 0 0 0 0 0 0 0 0 0 0 0 0 0 0 0 0 0 0 0 0 0 0 0 0 0 0 0 0 0 0 0 0 0 0 0 0 0 0 0 0 0 0 0 0 0 0 0 0 0 0 0 0 0 0 0 0 0 0 0 0 0 0 0 0 0 0 0 0 0 0 0 0 0 0 0 0 0 0 0 0 0 0 0 0 0 0 0 0 0 0 0 0 0 0 0 0 0 0 0 0 0 0 0 0 0 0 0 0 0 0 0 0 0 0 0 0 0 0 0 0 0 0 0 0 0 0 0 0 0 0 0 0 0 0 0 0 0 0 0 0 0 0 0 0 0 0 0 0 0 0 0 0 0 0 0 0 0 0 0 0 0 0 0 0 0 0 0 0 0 0 0 0 0 0 0 0 0 0 0 0 0 0 0 0 0 0 0 0 0 0 0 0 0 0 0 0 0 0 0 0 0 0 0 0 0 0 0 0 0 0 0 0 0 0 0 0 0 0 0 0 0 0 0 0 0 0 0 0 0 0 0 0 0 0 0 0 0 0 0 0 0 0 0 0 0 0 0 0 0 0 0 0 0 0 0 0 0 0 0 0 0 0 0 0 0 0 0 0 0 0 0 0 0 0 0 0 0 0 0 0 0 0 0 0 0 0 0 0 0 0 0 0 0 0 0 0 0 0 0 0 0 0 0 0 0 0 0 0 0 0 0 0 0 0 0 0 0 0 0 0 0 0 0 0 0 0 0 0 0 0 0 0 0 0 0 0 0 </DataArray>
<DataArray type="Float32" Name="temperature" format="ascii">