<VTKFile type="UnstructuredGrid" version="0.1" byte_order="LittleEndian">
<UnstructuredGrid>
<Piece NumberOfPoints="343" NumberOfCells="216">
<Points>
<DataArray type="Float32" NumberOfComponents="3" format="ascii">
-0.05 -0.05 -0.05 0.05 -0.05 -0.05 0.05 0.05 -0.05 -0.05 0.05 -0.05 -0.05 -0.05 0.05 0.05 -0.05 0.05 0.05 0.05 0.05 -0.05 0.05 0.05 -0.0333333 -0.05 -0.05 -0.0166667 -0.05 -0.05 0 -0.05 -0.05 0.0166667 -0.05 -0.05 0.0333333 -0.05 -0.05 0.05 -0.0333333 -0.05 0.05 -0.0166667 -0.05 0.05 0 -0.05 0.05 0.0166667 -0.05 0.05 0.0333333 -0.05 0.0333333 0.05 -0.05 0.0166667 0.05 -0.05 0 0.05 -0.05 -0.0166667 0.05 -0.05 -0.0333333 0.05 -0.05 -0.05 0.0333333 -0.05 -0.05 0.0166667 -0.05 -0.05 0 -0.05 -0.05 -0.0166667 -0.05 -0.05 -0.0333333 -0.05 -0.0333333 -0.05 0.05 -0.0166667 -0.05 0.05 0 -0.05 0.05 0.0166667 -0.05 0.05 0.0333333 -0.05 0.05 0.05 -0.0333333 0.05 0.05 -0.0166667 0.05 0.05 0 0.05 0.05 0.0166667 0.05 0.05 0.0333333 0.05 0.0333333 0.05 0.05 0.0166667 0.05 0.05 0 0.05 0.05 -0.0166667 0.05 0.05 -0.0333333 0.05 0.05 -0.05 0.0333333 0.05 -0.05 0.0166667 0.05 -0.05 0 0.05 -0.05 -0.0166667 0.05 -0.05 -0.0333333 0.05 -0.05 -0.05 -0.0333333 -0.05 -0.05 -0.0166667 -0.05 -0.05 0 -0.05 -0.05 0.0166667 -0.05 -0.05 0.0333333 0.05 -0.05 -0.0333333 0.05 -0.05 -0.0166667 0.05 -0.05 0 0.05 -0.05 0.0166667 0.05 -0.05 0.0333333 0.05 0.05 -0.0333333 0.05 0.05 -0.0166667 0.05 0.05 0 0.05 0.05 0.0166667 0.05 0.05 0.0333333 -0.05 0.05 -0.0333333 -0.05 0.05 -0.0166667 -0.05 0.05 0 -0.05 0.05 0.0166667 -0.05 0.05 0.0333333 -0.0333333 0.0333333 -0.05 -0.0333333 0.0166667 -0.05 -0.0333333 -3.55271e-18 -0.05 -0.0333333 -0.0166667 -0.05 -0.0333333 -0.0333333 -0.05 -0.0166667 0.0333333 -0.05 -0.0166667 0.0166667 -0.05 -0.0166667 -7.10543e-18 -0.05 -0.0166667 -0.0166667 -0.05 -0.0166667 -0.0333333 -0.05 1.77636e-18 0.0333333 -0.05 5.32907e-18 0.0166667 -0.05 3.55271e-18 -1.77636e-18 -0.05 7.10543e-18 -0.0166667 -0.05 3.55271e-18 -0.0333333 -0.05 0.0166667 0.0333333 -0.05 0.0166667 0.0166667 -0.05 0.0166667 -7.10543e-18 -0.05 0.0166667 -0.0166667 -0.05 0.0166667 -0.0333333 -0.05 0.0333333 0.0333333 -0.05 0.0333333 0.0166667 -0.05 0.0333333 -1.77636e-18 -0.05 0.0333333 -0.0166667 -0.05 0.0333333 -0.0333333 -0.05 -0.0333333 -0.0333333 0.05 -0.0333333 -0.0166667 0.05 -0.0333333 0 0.05 -0.0333333 0.0166667 0.05 -0.0333333 0.0333333 0.05 -0.0166667 -0.0333333 0.05 -0.0166667 -0.0166667 0.05 -0.0166667 0 0.05 -0.0166667 0.0166667 0.05 -0.0166667 0.0333333 0.05 0 -0.0333333 0.05 0 -0.0166667 0.05 0 0 0.05 0 0.0166667 0.05 0 0.0333333 0.05 0.0166667 -0.0333333 0.05 0.0166667 -0.0166667 0.05 0.0166667 0 0.05 0.0166667 0.0166667 0.05 0.0166667 0.0333333 0.05 0.0333333 -0.0333333 0.05 0.0333333 -0.0166667 0.05 0.0333333 1.77636e-18 0.05 0.0333333 0.0166667 0.05 0.0333333 0.0333333 0.05 -0.0333333 -0.05 -0.0333333 -0.0333333 -0.05 -0.0166667 -0.0333333 -0.05 0 -0.0333333 -0.05 0.0166667 -0.0333333 -0.05 0.0333333 -0.0166667 -0.05 -0.0333333 -0.0166667 -0.05 -0.0166667 -0.0166667 -0.05 0 -0.0166667 -0.05 0.0166667 -0.0166667 -0.05 0.0333333 0 -0.05 -0.0333333 0 -0.05 -0.0166667 0 -0.05 0 0 -0.05 0.0166667 0 -0.05 0.0333333 0.0166667 -0.05 -0.0333333 0.0166667 -0.05 -0.0166667 0.0166667 -0.05 0 0.0166667 -0.05 0.0166667 0.0166667 -0.05 0.0333333 0.0333333 -0.05 -0.0333333 0.0333333 -0.05 -0.0166667 0.0333333 -0.05 1.77636e-18 0.0333333 -0.05 0.0166667 0.0333333 -0.05 0.0333333 0.05 -0.0333333 -0.0333333 0.05 -0.0333333 -0.0166667 0.05 -0.0333333 0 0.05 -0.0333333 0.0166667 0.05 -0.0333333 0.0333333 0.05 -0.0166667 -0.0333333 0.05 -0.0166667 -0.0166667 0.05 -0.0166667 0 0.05 -0.0166667 0.0166667 0.05 -0.0166667 0.0333333 0.05 0 -0.0333333 0.05 0 -0.0166667 0.05 0 0 0.05 0 0.0166667 0.05 0 0.0333333 0.05 0.0166667 -0.0333333 0.05 0.0166667 -0.0166667 0.05 0.0166667 0 0.05 0.0166667 0.0166667 0.05 0.0166667 0.0333333 0.05 0.0333333 -0.0333333 0.05 0.0333333 -0.0166667 0.05 0.0333333 1.77636e-18 0.05 0.0333333 0.0166667 0.05 0.0333333 0.0333333 0.0333333 0.05 -0.0333333 0.0333333 0.05 -0.0166667 0.0333333 0.05 0 0.0333333 0.05 0.0166667 0.0333333 0.05 0.0333333 0.0166667 0.05 -0.0333333 0.0166667 0.05 -0.0166667 0.0166667 0.05 0 0.0166667 0.05 0.0166667 0.0166667 0.05 0.0333333 0 0.05 -0.0333333 0 0.05 -0.0166667 0 0.05 0 0 0.05 0.0166667 0 0.05 0.0333333 -0.0166667 0.05 -0.0333333 -0.0166667 0.05 -0.0166667 -0.0166667 0.05 0 -0.0166667 0.05 0.0166667 -0.0166667 0.05 0.0333333 -0.0333333 0.05 -0.0333333 -0.0333333 0.05 -0.0166667 -0.0333333 0.05 1.77636e-18 -0.0333333 0.05 0.0166667 -0.0333333 0.05 0.0333333 -0.05 0.0333333 -0.0333333 -0.05 0.0333333 -0.0166667 -0.05 0.0333333 0 -0.05 0.0333333 0.0166667 -0.05 0.0333333 0.0333333 -0.05 0.0166667 -0.0333333 -0.05 0.0166667 -0.0166667 -0.05 0.0166667 0 -0.05 0.0166667 0.0166667 -0.05 0.0166667 0.0333333 -0.05 0 -0.0333333 -0.05 0 -0.0166667 -0.05 0 0 -0.05 0 0.0166667 -0.05 0 0.0333333 -0.05 -0.0166667 -0.0333333 -0.05 -0.0166667 -0.0166667 -0.05 -0.0166667 0 -0.05 -0.0166667 0.0166667 -0.05 -0.0166667 0.0333333 -0.05 -0.0333333 -0.0333333 -0.05 -0.0333333 -0.0166667 -0.05 -0.0333333 1.77636e-18 -0.05 -0.0333333 0.0166667 -0.05 -0.0333333 0.0333333 -0.0333333 0.0333333 -0.0333333 -0.0333333 0.0333333 -0.0166667 -0.0333333 0.0333333 4.44089e-19 -0.0333333 0.0333333 0.0166667 -0.0333333 0.0333333 0.0333333 -0.0333333 0.0166667 -0.0333333 -0.0333333 0.0166667 -0.0166667 -0.0333333 0.0166667 -4.44089e-18 -0.0333333 0.0166667 0.0166667 -0.0333333 0.0166667 0.0333333 -0.0333333 -6.66134e-18 -0.0333333 -0.0333333 -9.76996e-18 -0.0166667 -0.0333333 -1.77636e-18 -1.77636e-18 -0.0333333 -1.77636e-18 0.0166667 -0.0333333 3.55271e-18 0.0333333 -0.0333333 -0.0166667 -0.0333333 -0.0333333 -0.0166667 -0.0166667 -0.0333333 -0.0166667 1.77636e-18 -0.0333333 -0.0166667 0.0166667 -0.0333333 -0.0166667 0.0333333 -0.0333333 -0.0333333 -0.0333333 -0.0333333 -0.0333333 -0.0166667 -0.0333333 -0.0333333 0 -0.0333333 -0.0333333 0.0166667 -0.0333333 -0.0333333 0.0333333 -0.0166667 0.0333333 -0.0333333 -0.0166667 0.0333333 -0.0166667 -0.0166667 0.0333333 2.66454e-18 -0.0166667 0.0333333 0.0166667 -0.0166667 0.0333333 0.0333333 -0.0166667 0.0166667 -0.0333333 -0.0166667 0.0166667 -0.0166667 -0.0166667 0.0166667 -1.77636e-18 -0.0166667 0.0166667 0.0166667 -0.0166667 0.0166667 0.0333333 -0.0166667 -1.06581e-17 -0.0333333 -0.0166667 -1.15463e-17 -0.0166667 -0.0166667 -3.55271e-18 0 -0.0166667 -8.88178e-18 0.0166667 -0.0166667 -1.77636e-18 0.0333333 -0.0166667 -0.0166667 -0.0333333 -0.0166667 -0.0166667 -0.0166667 -0.0166667 -0.0166667 3.55271e-18 -0.0166667 -0.0166667 0.0166667 -0.0166667 -0.0166667 0.0333333 -0.0166667 -0.0333333 -0.0333333 -0.0166667 -0.0333333 -0.0166667 -0.0166667 -0.0333333 0 -0.0166667 -0.0333333 0.0166667 -0.0166667 -0.0333333 0.0333333 3.44169e-18 0.0333333 -0.0333333 1.02141e-17 0.0333333 -0.0166667 2.66454e-18 0.0333333 -8.88178e-19 6.21725e-18 0.0333333 0.0166667 1.33227e-18 0.0333333 0.0333333 7.99361e-18 0.0166667 -0.0333333 8.43769e-18 0.0166667 -0.0166667 8.88178e-19 0.0166667 8.88178e-19 7.99361e-18 0.0166667 0.0166667 3.55271e-18 0.0166667 0.0333333 3.55271e-18 -1.77636e-18 -0.0333333 9.76996e-18 -9.76996e-18 -0.0166667 0 -8.88178e-19 -8.88178e-19 8.88178e-18 -8.88178e-18 0.0166667 1.77636e-18 -1.77636e-18 0.0333333 1.02141e-17 -0.0166667 -0.0333333 1.24345e-17 -0.0166667 -0.0166667 3.55271e-18 -0.0166667 -1.77636e-18 8.88178e-18 -0.0166667 0.0166667 3.55271e-18 -0.0166667 0.0333333 5.77316e-18 -0.0333333 -0.0333333 4.44089e-18 -0.0333333 -0.0166667 1.77636e-18 -0.0333333 1.77636e-18 5.32907e-18 -0.0333333 0.0166667 0 -0.0333333 0.0333333 0.0166667 0.0333333 -0.0333333 0.0166667 0.0333333 -0.0166667 0.0166667 0.0333333 -2.66454e-18 0.0166667 0.0333333 0.0166667 0.0166667 0.0333333 0.0333333 0.0166667 0.0166667 -0.0333333 0.0166667 0.0166667 -0.0166667 0.0166667 0.0166667 3.10862e-18 0.0166667 0.0166667 0.0166667 0.0166667 0.0166667 0.0333333 0.0166667 -1.24345e-17 -0.0333333 0.0166667 -1.37668e-17 -0.0166667 0.0166667 -3.55271e-18 -1.77636e-18 0.0166667 -6.21725e-18 0.0166667 0.0166667 -8.88178e-19 0.0333333 0.0166667 -0.0166667 -0.0333333 0.0166667 -0.0166667 -0.0166667 0.0166667 -0.0166667 2.66454e-18 0.0166667 -0.0166667 0.0166667 0.0166667 -0.0166667 0.0333333 0.0166667 -0.0333333 -0.0333333 0.0166667 -0.0333333 -0.0166667 0.0166667 -0.0333333 0 0.0166667 -0.0333333 0.0166667 0.0166667 -0.0333333 0.0333333 0.0333333 0.0333333 -0.0333333 0.0333333 0.0333333 -0.0166667 0.0333333 0.0333333 3.33067e-19 0.0333333 0.0333333 0.0166667 0.0333333 0.0333333 0.0333333 0.0333333 0.0166667 -0.0333333 0.0333333 0.0166667 -0.0166667 0.0333333 0.0166667 1.11022e-18 0.0333333 0.0166667 0.0166667 0.0333333 0.0166667 0.0333333 0.0333333 -4.44089e-18 -0.0333333 0.0333333 -4.21885e-18 -0.0166667 0.0333333 8.88178e-19 8.88178e-19 0.0333333 -1.33227e-18 0.0166667 0.0333333 3.55271e-18 0.0333333 0.0333333 -0.0166667 -0.0333333 0.0333333 -0.0166667 -0.0166667 0.0333333 -0.0166667 2.22045e-18 0.0333333 -0.0166667 0.0166667 0.0333333 -0.0166667 0.0333333 0.0333333 -0.0333333 -0.0333333 0.0333333 -0.0333333 -0.0166667 0.0333333 -0.0333333 2.22045e-18 0.0333333 -0.0333333 0.0166667 0.0333333 -0.0333333 0.0333333 </DataArray>
</Points>
<Cells>
<DataArray type="Int32" Name="connectivity" format="ascii">
68 22 3 23 218 188 63 193 218 188 63 193 219 189 64 194 219 189 64 194 220 190 65 195 220 190 65 195 221 191 66 196 221 191 66 196 222 192 67 197 222 192 67 197 97 42 7 43 69 68 23 24 223 218 193 198 223 218 193 198 224 219 194 199 224 219 194 199 225 220 195 200 225 220 195 200 226 221 196 201 226 221 196 201 227 222 197 202 227 222 197 202 96 97 43 44 70 69 24 25 228 223 198 203 228 223 198 203 229 224 199 204 229 224 199 204 230 225 200 205 230 225 200 205 231 226 201 206 231 226 201 206 232 227 202 207 232 227 202 207 95 96 44 45 71 70 25 26 233 228 203 208 233 228 203 208 234 229 204 209 234 229 204 209 235 230 205 210 235 230 205 210 236 231 206 211 236 231 206 211 237 232 207 212 237 232 207 212 94 95 45 46 72 71 26 27 238 233 208 213 238 233 208 213 239 234 209 214 239 234 209 214 240 235 210 215 240 235 210 215 241 236 211 216 241 236 211 216 242 237 212 217 242 237 212 217 93 94 46 47 8 72 27 0 118 238 213 48 118 238 213 48 119 239 214 49 119 239 214 49 120 240 215 50 120 240 215 50 121 241 216 51 121 241 216 51 122 242 217 52 122 242 217 52 28 93 47 4 73 21 22 68 243 183 188 218 243 183 188 218 244 184 189 219 244 184 189 219 245 185 190 220 245 185 190 220 246 186 191 221 246 186 191 221 247 187 192 222 247 187 192 222 102 41 42 97 74 73 68 69 248 243 218 223 248 243 218 223 249 244 219 224 249 244 219 224 250 245 220 225 250 245 220 225 251 246 221 226 251 246 221 226 252 247 222 227 252 247 222 227 101 102 97 96 75 74 69 70 253 248 223 228 253 248 223 228 254 249 224 229 254 249 224 229 255 250 225 230 255 250 225 230 256 251 226 231 256 251 226 231 257 252 227 232 257 252 227 232 100 101 96 95 76 75 70 71 258 253 228 233 258 253 228 233 259 254 229 234 259 254 229 234 260 255 230 235 260 255 230 235 261 256 231 236 261 256 231 236 262 257 232 237 262 257 232 237 99 100 95 94 77 76 71 72 263 258 233 238 263 258 233 238 264 259 234 239 264 259 234 239 265 260 235 240 265 260 235 240 266 261 236 241 266 261 236 241 267 262 237 242 267 262 237 242 98 99 94 93 9 77 72 8 123 263 238 118 123 263 238 118 124 264 239 119 124 264 239 119 125 265 240 120 125 265 240 120 126 266 241 121 126 266 241 121 127 267 242 122 127 267 242 122 29 98 93 28 78 20 21 73 268 178 183 243 268 178 183 243 269 179 184 244 269 179 184 244 270 180 185 245 270 180 185 245 271 181 186 246 271 181 186 246 272 182 187 247 272 182 187 247 107 40 41 102 79 78 73 74 273 268 243 248 273 268 243 248 274 269 244 249 274 269 244 249 275 270 245 250 275 270 245 250 276 271 246 251 276 271 246 251 277 272 247 252 277 272 247 252 106 107 102 101 80 79 74 75 278 273 248 253 278 273 248 253 279 274 249 254 279 274 249 254 280 275 250 255 280 275 250 255 281 276 251 256 281 276 251 256 282 277 252 257 282 277 252 257 105 106 101 100 81 80 75 76 283 278 253 258 283 278 253 258 284 279 254 259 284 279 254 259 285 280 255 260 285 280 255 260 286 281 256 261 286 281 256 261 287 282 257 262 287 282 257 262 104 105 100 99 82 81 76 77 288 283 258 263 288 283 258 263 289 284 259 264 289 284 259 264 290 285 260 265 290 285 260 265 291 286 261 266 291 286 261 266 292 287 262 267 292 287 262 267 103 104 99 98 10 82 77 9 128 288 263 123 128 288 263 123 129 289 264 124 129 289 264 124 130 290 265 125 130 290 265 125 131 291 266 126 131 291 266 126 132 292 267 127 132 292 267 127 30 103 98 29 83 19 20 78 293 173 178 268 293 173 178 268 294 174 179 269 294 174 179 269 295 175 180 270 295 175 180 270 296 176 181 271 296 176 181 271 297 177 182 272 297 177 182 272 112 39 40 107 84 83 78 79 298 293 268 273 298 293 268 273 299 294 269 274 299 294 269 274 300 295 270 275 300 295 270 275 301 296 271 276 301 296 271 276 302 297 272 277 302 297 272 277 111 112 107 106 85 84 79 80 303 298 273 278 303 298 273 278 304 299 274 279 304 299 274 279 305 300 275 280 305 300 275 280 306 301 276 281 306 301 276 281 307 302 277 282 307 302 277 282 110 111 106 105 86 85 80 81 308 303 278 283 308 303 278 283 309 304 279 284 309 304 279 284 310 305 280 285 310 305 280 285 311 306 281 286 311 306 281 286 312 307 282 287 312 307 282 287 109 110 105 104 87 86 81 82 313 308 283 288 313 308 283 288 314 309 284 289 314 309 284 289 315 310 285 290 315 310 285 290 316 311 286 291 316 311 286 291 317 312 287 292 317 312 287 292 108 109 104 103 11 87 82 10 133 313 288 128 133 313 288 128 134 314 289 129 134 314 289 129 135 315 290 130 135 315 290 130 136 316 291 131 136 316 291 131 137 317 292 132 137 317 292 132 31 108 103 30 88 18 19 83 318 168 173 293 318 168 173 293 319 169 174 294 319 169 174 294 320 170 175 295 320 170 175 295 321 171 176 296 321 171 176 296 322 172 177 297 322 172 177 297 117 38 39 112 89 88 83 84 323 318 293 298 323 318 293 298 324 319 294 299 324 319 294 299 325 320 295 300 325 320 295 300 326 321 296 301 326 321 296 301 327 322 297 302 327 322 297 302 116 117 112 111 90 89 84 85 328 323 298 303 328 323 298 303 329 324 299 304 329 324 299 304 330 325 300 305 330 325 300 305 331 326 301 306 331 326 301 306 332 327 302 307 332 327 302 307 115 116 111 110 91 90 85 86 333 328 303 308 333 328 303 308 334 329 304 309 334 329 304 309 335 330 305 310 335 330 305 310 336 331 306 311 336 331 306 311 337 332 307 312 337 332 307 312 114 115 110 109 92 91 86 87 338 333 308 313 338 333 308 313 339 334 309 314 339 334 309 314 340 335 310 315 340 335 310 315 341 336 311 316 341 336 311 316 342 337 312 317 342 337 312 317 113 114 109 108 12 92 87 11 138 338 313 133 138 338 313 133 139 339 314 134 139 339 314 134 140 340 315 135 140 340 315 135 141 341 316 136 141 341 316 136 142 342 317 137 142 342 317 137 32 113 108 31 17 2 18 88 163 58 168 318 163 58 168 318 164 59 169 319 164 59 169 319 165 60 170 320 165 60 170 320 166 61 171 321 166 61 171 321 167 62 172 322 167 62 172 322 37 6 38 117 16 17 88 89 158 163 318 323 158 163 318 323 159 164 319 324 159 164 319 324 160 165 320 325 160 165 320 325 161 166 321 326 161 166 321 326 162 167 322 327 162 167 322 327 36 37 117 116 15 16 89 90 153 158 323 328 153 158 323 328 154 159 324 329 154 159 324 329 155 160 325 330 155 160 325 330 156 161 326 331 156 161 326 331 157 162 327 332 157 162 327 332 35 36 116 115 14 15 90 91 148 153 328 333 148 153 328 333 149 154 329 334 149 154 329 334 150 155 330 335 150 155 330 335 151 156 331 336 151 156 331 336 152 157 332 337 152 157 332 337 34 35 115 114 13 14 91 92 143 148 333 338 143 148 333 338 144 149 334 339 144 149 334 339 145 150 335 340 145 150 335 340 146 151 336 341 146 151 336 341 147 152 337 342 147 152 337 342 33 34 114 113 1 13 92 12 53 143 338 138 53 143 338 138 54 144 339 139 54 144 339 139 55 145 340 140 55 145 340 140 56 146 341 141 56 146 341 141 57 147 342 142 57 147 342 142 5 33 113 32 </DataArray>
<DataArray type="Int32" Name="offsets" format="ascii">
8 16 24 32 40 48 56 64 72 80 88 96 104 112 120 128 136 144 152 160 168 176 184 192 200 208 216 224 232 240 248 256 264 272 280 288 296 304 312 320 328 336 344 352 360 368 376 384 392 400 408 416 424 432 440 448 456 464 472 480 488 496 504 512 520 528 536 544 552 560 568 576 584 592 600 608 616 624 632 640 648 656 664 672 680 688 696 704 712 720 728 736 744 752 760 768 776 784 792 800 808 816 824 832 840 848 856 864 872 880 888 896 904 912 920 928 936 944 952 960 968 976 984 992 1000 1008 1016 1024 1032 1040 1048 1056 1064 1072 1080 1088 1096 1104 1112 1120 1128 1136 1144 1152 1160 1168 1176 1184 1192 1200 1208 1216 1224 1232 1240 1248 1256 1264 1272 1280 1288 1296 1304 1312 1320 1328 1336 1344 1352 1360 1368 1376 1384 1392 1400 1408 1416 1424 1432 1440 1448 1456 1464 1472 1480 1488 1496 1504 1512 1520 1528 1536 1544 1552 1560 1568 1576 1584 1592 1600 1608 1616 1624 1632 1640 1648 1656 1664 1672 1680 1688 1696 1704 1712 1720 1728 </DataArray>
<DataArray type="UInt8" Name="types" format="ascii">
12 12 12 12 12 12 12 12 12 12 12 12 12 12 12 12 12 12 12 12 12 12 12 12 12 12 12 12 12 12 12 12 12 12 12 12 12 12 12 12 12 12 12 12 12 12 12 12 12 12 12 12 12 12 12 12 12 12 12 12 12 12 12 12 12 12 12 12 12 12 12 12 12 12 12 12 12 12 12 12 12 12 12 12 12 12 12 12 12 12 12 12 12 12 12 12 12 12 12 12 12 12 12 12 12 12 12 12 12 12 12 12 12 12 12 12 12 12 12 12 12 12 12 12 12 12 12 12 12 12 12 12 12 12 12 12 12 12 12 12 12 12 12 12 12 12 12 12 12 12 12 12 12 12 12 12 12 12 12 12 12 12 12 12 12 12 12 12 12 12 12 12 12 12 12 12 12 12 12 12 12 12 12 12 12 12 12 12 12 12 12 12 12 12 12 12 12 12 12 12 12 12 12 12 12 12 12 12 12 12 12 12 12 12 12 12 </DataArray>
</Cells>
<CellData Scalars="scalars">
<DataArray type="Float32" Name="number_density" format="ascii">
6.48e+15 5.184e+15 6.696e+15 8.424e+15 6.696e+15 8.424e+15 3.456e+15 9.72e+15 6.696e+15 5.616e+15 8.424e+15 7.56e+15 6.264e+15 6.696e+15 5.4e+15 4.968e+15 6.48e+15 8.64e+15 5.616e+15 7.128e+15 5.832e+15 6.696e+15 7.992e+15 8.64e+15 7.776e+15 5.4e+15 9.936e+15 9.504e+15 7.992e+15 7.344e+15 8.64e+15 6.264e+15 5.832e+15 4.968e+15 5.616e+15 6.264e+15 5.616e+15 6.912e+15 8.208e+15 9.072e+15 9.72e+15 7.344e+15 3.456e+15 5.832e+15 9.72e+15 1.7064e+16 1.5552e+16 1.1664e+16 5.184e+15 6.696e+15 1.3392e+16 1.8576e+16 1.4688e+16 1.0584e+16 2.376e+15 1.0584e+16 1.296e+16 1.3176e+16 1.3176e+16 9.288e+15 5.4e+15 8.856e+15 1.0152e+16 1.5768e+16 9.504e+15 1.1016e+16 6.696e+15 7.776e+15 8.424e+15 7.128e+15 6.696e+15 7.992e+15 3.24e+15 8.208e+15 8.64e+15 1.08e+16 1.404e+16 1.1664e+16 3.456e+15 6.912e+15 1.4472e+16 2.7432e+16 2.7e+16 1.4256e+16 1.944e+15 1.1232e+16 1.4904e+16 4.3632e+16 5.8536e+16 1.3608e+16 2.592e+15 9.072e+15 1.3824e+16 2.916e+16 2.6568e+16 1.1664e+16 5.832e+15 9.072e+15 1.1664e+16 1.4256e+16 1.3176e+16 1.0584e+16 3.24e+15 4.968e+15 6.48e+15 7.776e+15 7.344e+15 6.912e+15 4.968e+15 7.56e+15 7.776e+15 9.936e+15 1.0584e+16 1.188e+16 5.4e+15 7.128e+15 1.4904e+16 2.6136e+16 2.6784e+16 1.3824e+16 3.456e+15 7.128e+15 1.5336e+16 4.7088e+16 4.5792e+16 1.4904e+16 3.24e+15 1.0368e+16 1.1664e+16 2.4624e+16 2.2896e+16 1.2312e+16 5.832e+15 8.424e+15 8.856e+15 9.936e+15 1.1664e+16 8.424e+15 4.752e+15 6.912e+15 5.832e+15 6.912e+15 8.64e+15 8.208e+15 4.968e+15 9.072e+15 9.072e+15 1.2744e+16 1.3176e+16 9.936e+15 6.264e+15 7.776e+15 1.4688e+16 1.5768e+16 1.4472e+16 1.0152e+16 5.4e+15 9.504e+15 1.2744e+16 2.1816e+16 2.0304e+16 1.0584e+16 4.752e+15 1.08e+16 1.0368e+16 1.2528e+16 1.4472e+16 1.0368e+16 5.4e+15 7.992e+15 9.288e+15 7.128e+15 9.504e+15 7.992e+15 4.752e+15 6.048e+15 6.048e+15 7.776e+15 7.776e+15 9.936e+15 7.776e+15 6.912e+15 7.776e+15 8.856e+15 9.288e+15 1.0152e+16 4.536e+15 7.776e+15 7.56e+15 9.72e+15 1.0152e+16 7.776e+15 4.32e+15 7.992e+15 6.48e+15 7.128e+15 9.072e+15 8.856e+15 4.104e+15 5.4e+15 3.672e+15 6.048e+15 6.912e+15 6.264e+15 5.616e+15 5.184e+15 6.48e+15 5.4e+15 7.56e+15 7.992e+15 8.424e+15 6.048e+15 4.32e+15 6.048e+15 7.776e+15 9.504e+15 </DataArray>
<DataArray type="Float32" Name="potential" format="ascii">
0 0 0 0 0 0 0 0 0 0 0 0 0 0 0 0 0 0 0 0 0 0 0 0 0 0 0 0 0 0 0 0 0 0 0 0 0 0 0 0 0 0 0 0 0 0 0 0 0 0 0 0 0 0 0 0 0 0 0 0 0 0 0 0 0 0 0 0 0 0 0 0 0 0 0 0 0 0 0 0 0 0 0 0 0 0 0 0 0 0 0 0 0 0 0 0 0 0 0 0 0 0 0 0 0 0 0 0 0 0 0 0 0 0 0 0 0 0 0 0 0 0 0 0 0 0 0 0 0 0 0 0 0 0 0 0 0 0 0 0 0 0 0 0 0 0 0 0 0 0 0 0 0 0 0 0 0 0 0 0 0 0 0 0 0 0 0 0 0 0 0 0 0 0 0 0 0 0 0 0 0 0 0 0 0 0 0 0 0 0 0 0 0 0 0 0 0 0 0 0 0 0 0 0 0 0 0 0 0 0 0 0 0 0 0 0 </DataArray>
<DataArray type="Float32" Name="temperature" format="ascii">
220.263 307.187 278.824 336.394 306.732 273.166 128.672 252.443 300.978 384.324 374.881 341.67 191.913 299.473 460.839 652.62 362.742 232.764 235.559 278.213 328.176 378.846 402.21 266.969 234.434 224.776 301.597 261.635 277.878 233.178 212.899 294.732 220.187 243.219 247.911 234.429 191.1 253.977 338.988 391.671 272.173 301.317 231.314 271.894 402.291 554.282 443.053 327.909 240.776 373.479 539.226 578.035 502.658 327.858 336.631 290.71 404.441 502.074 563.26 403.244 362.258 336.786 376.646 476.3 353.883 249.533 227.632 341.181 279.14 254.91 255.587 269.259 289.88 277.042 307.769 355.013 417.045 378.53 198.089 307.398 519.079 775.111 762.74 376.365 258.504 461.069 625.467 1103.21 1031.26 426.026 333.846 408.513 558.462 907.284 833.289 415.837 427.048 317.584 383.09 546.883 386.277 305.46 174.489 209.411 291.957 377.589 340.474 267.271 215.625 231.972 278.971 431.7 433.774 256.81 267.327 343.403 517.121 798.991 703.055 331.101 364.532 313.957 454.859 1023.81 928.786 439.886 345.047 391.764 530.112 798.838 712.986 345.844 267.355 357.937 442.86 417.333 400.216 244.608 372.123 274.181 423.558 361.121 362.555 256.543 235.133 280.234 400.32 369.183 322.774 284.645 259.019 371.393 382.259 418.926 375.022 317.473 343.526 313.218 414.719 620.269 546.609 327.971 193.853 326.489 534.6 716.686 384.039 353.739 317.249 262.287 267.09 395.256 338.501 272.412 216.786 268.14 338.532 327.693 271.687 230.828 288.96 231.633 239.583 359.394 303.864 333.362 262.94 280.43 308.264 288.196 368.284 313.225 207.238 313.784 348.391 477.47 322.317 273.347 269.802 262.363 298.033 301.684 354.765 262.501 198.636 222.455 320.139 245.622 266.044 240.678 237.531 256.776 172.784 228.567 208.62 220.453 </DataArray>
<DataArray type="Float32" Name="velocity" format="ascii">
158.073 256.915 329.342 246.776 152.856 61.8686 296.736 385.638 554.469 444.357 164.933 131.099 291.698 505.871 590.928 451.041 268.768 149.716 352.741 450.014 556.336 504.482 350.591 273.616 205.42 340.442 406.642 412.878 238.473 228.851 126.104 178.66 286.655 212.276 189.957 180.412 234.508 402.854 530.835 474.915 285.449 160.354 387.544 614.912 676.858 580.897 424.813 192.016 515.367 851.372 925.104 823.924 464.783 272.884 521.198 732.567 904.038 760.801 456.997 348.214 316.706 541.583 632.02 535.754 440.338 266.788 191.395 338.114 373.686 409.88 238.354 152.992 393.533 605.701 686.708 588.674 263.239 82.8198 471.146 843.281 951.979 720.897 401.804 149.752 688.177 1032.68 1283.22 917.421 584.122 216.235 625.004 944.774 1142.09 980.358 563.03 263.223 435.698 717.864 843.075 760.188 481.818 321.977 356.88 446.857 574.687 372.266 210.366 156.415 319.084 541.465 572.748 445.606 199.261 31.6762 489.029 782.997 912.095 745.987 295.722 60.6062 609.349 1039.2 1253.92 952.835 435.363 120.601 588.665 1035.2 1243.43 1012.85 540.014 395.711 480.124 775.696 951.647 875.961 482.065 369.913 303.447 437.881 594.672 498.508 333.252 148.923 269.92 359.505 406.286 326.306 70.695 42.1894 375.161 542.865 764.151 552.986 268.855 122.992 456.968 758.321 944.971 738.676 302.005 249.145 497.681 781.905 961.305 821.498 501.435 231.052 293.532 603.509 715.179 690.731 445.956 272.483 280.003 362.757 489.969 390.875 356.249 196.857 120.948 221.457 251.576 224.653 73.6005 112.631 198.107 394.844 473.436 344.69 167.645 83.8445 265.516 505.467 561.254 488.137 299.824 142.277 320.36 513.769 597.67 501.302 266.37 171.748 234.917 409.716 507.352 424.169 318.744 112.359 123.104 218.533 336.94 313.484 195.116 145.345 </DataArray>
<DataArray type="Float32" Name="E_field" format="ascii">
0 0 0 0 0 0 0 0 0 0 0 0 0 0 0 0 0 0 0 0 0 0 0 0 0 0 0 0 0 0 0 0 0 0 0 0 0 0 0 0 0 0 0 0 0 0 0 0 0 0 0 0 0 0 0 0 0 0 0 0 0 0 0 0 0 0 0 0 0 0 0 0 0 0 0 0 0 0 0 0 0 0 0 0 0 0 0 0 0 0 0 0 0 0 0 0 0 0 0 0 0 0 0 0 0 0 0 0 0 0 0 0 0 0 0 0 0 0 0 0 0 0 0 0 0 0 0 0 0 0 0 0 0 0 0 0 0 0 0 0 0 0 0 0 0 0 0 0 0 0 0 0 0 0 0 0 0 0 0 0 0 0 0 0 0 0 0 0 0 0 0 0 0 0 0 0 0 0 0 0 0 0 0 0 0 0 0 0 0 0 0 0 0 0 0 0 0 0 0 0 0 0 0 0 0 0 0 0 0 0 0 0 0 0 0 0 </DataArray>
</CellData>
<PointData Scalars="number_density">
<DataArray type="Float32" Name="number_density" format="ascii">
8.64e+15 8.424e+15 7.776e+15 6.48e+15 6.264e+15 9.504e+15 1.0152e+16 8.424e+15 7.668e+15 4.968e+15 3.996e+15 4.752e+15 6.588e+15 7.02e+15 4.86e+15 4.212e+15 4.428e+15 6.156e+15 6.372e+15 4.968e+15 4.104e+15 4.428e+15 6.048e+15 4.968e+15 4.86e+15 5.94e+15 6.696e+15 8.208e+15 7.128e+15 7.452e+15 7.56e+15 9.072e+15 9.72e+15 8.748e+15 7.128e+15 7.56e+15 8.316e+15 8.964e+15 1.0044e+16 1.0908e+16 1.1772e+16 9.504e+15 7.884e+15 7.992e+15 8.1e+15 8.64e+15 7.992e+15 6.804e+15 7.452e+15 6.048e+15 5.4e+15 5.292e+15 5.94e+15 7.236e+15 5.184e+15 5.184e+15 6.912e+15 8.64e+15 7.344e+15 7.344e+15 8.316e+15 9.072e+15 9.72e+15 5.832e+15 5.94e+15 7.56e+15 7.56e+15 7.56e+15 4.752e+15 4.59e+15 4.86e+15 5.292e+15 7.128e+15 3.942e+15 3.51e+15 3.024e+15 4.05e+15 5.292e+15 4.266e+15 3.564e+15 2.808e+15 4.374e+15 4.914e+15 5.4e+15 5.13e+15 4.212e+15 4.806e+15 5.184e+15 5.886e+15 5.13e+15 4.644e+15 4.968e+15 6.048e+15 8.154e+15 9.072e+15 9.288e+15 9.612e+15 8.748e+15 9.126e+15 1.0638e+16 1.1286e+16 1.2528e+16 1.1232e+16 8.532e+15 1.0746e+16 1.3122e+16 1.4148e+16 1.2906e+16 8.64e+15 9.774e+15 1.2042e+16 1.2366e+16 1.1448e+16 8.856e+15 8.154e+15 9.018e+15 9.342e+15 9.504e+15 7.344e+15 7.074e+15 6.588e+15 6.102e+15 6.642e+15 5.67e+15 6.912e+15 7.452e+15 7.236e+15 7.236e+15 4.968e+15 6.048e+15 6.75e+15 7.668e+15 7.776e+15 5.616e+15 6.21e+15 6.642e+15 7.776e+15 8.64e+15 6.318e+15 5.616e+15 6.048e+15 7.344e+15 8.748e+15 6.318e+15 5.508e+15 5.562e+15 6.696e+15 8.208e+15 5.076e+15 5.184e+15 5.4e+15 6.48e+15 7.182e+15 5.454e+15 5.886e+15 5.832e+15 7.29e+15 7.776e+15 6.156e+15 7.452e+15 7.722e+15 9.018e+15 8.964e+15 6.75e+15 7.506e+15 8.478e+15 9.504e+15 9.342e+15 7.182e+15 8.208e+15 9.612e+15 1.1016e+16 1.0638e+16 6.642e+15 8.37e+15 9.882e+15 1.161e+16 1.1394e+16 5.994e+15 8.046e+15 9.288e+15 1.134e+16 1.2042e+16 5.994e+15 7.992e+15 9.18e+15 1.0908e+16 1.0692e+16 6.048e+15 6.75e+15 8.1e+15 8.478e+15 8.046e+15 6.21e+15 7.074e+15 6.858e+15 7.29e+15 7.776e+15 6.534e+15 7.128e+15 5.67e+15 6.372e+15 7.776e+15 6.426e+15 6.264e+15 5.724e+15 6.534e+15 7.938e+15 6.48e+15 7.074e+15 7.992e+15 8.046e+15 7.992e+15 7.02e+15 6.858e+15 7.56e+15 7.02e+15 6.804e+15 5.832e+15 7.371e+15 8.937e+15 1.0071e+16 9.423e+15 5.913e+15 8.019e+15 1.0179e+16 1.1421e+16 1.0449e+16 6.318e+15 8.586e+15 1.0125e+16 1.0719e+16 9.936e+15 6.642e+15 8.856e+15 1.0503e+16 1.0476e+16 9.369e+15 7.101e+15 7.83e+15 8.964e+15 8.397e+15 7.803e+15 5.454e+15 8.613e+15 1.3176e+16 1.6335e+16 1.3905e+16 5.589e+15 1.0395e+16 1.9899e+16 2.781e+16 2.0736e+16 6.21e+15 1.1583e+16 1.9953e+16 2.7189e+16 1.9764e+16 6.723e+15 1.0773e+16 1.512e+16 1.6848e+16 1.3122e+16 6.48e+15 8.424e+15 1.0206e+16 1.0206e+16 9.153e+15 5.859e+15 9.45e+15 1.5012e+16 1.9089e+16 1.6254e+16 5.832e+15 1.1502e+16 2.5488e+16 3.78e+16 2.6838e+16 6.129e+15 1.1691e+16 2.5029e+16 3.7287e+16 2.5785e+16 6.804e+15 1.0368e+16 1.5498e+16 1.9035e+16 1.4661e+16 6.129e+15 7.776e+15 8.964e+15 9.963e+15 9.369e+15 6.642e+15 9.747e+15 1.3878e+16 1.62e+16 1.3851e+16 6.507e+15 1.1151e+16 2.106e+16 2.727e+16 1.9602e+16 6.831e+15 1.0989e+16 1.9521e+16 2.619e+16 1.8954e+16 7.101e+15 9.72e+15 1.1799e+16 1.4094e+16 1.2204e+16 6.264e+15 7.425e+15 7.722e+15 8.667e+15 9.018e+15 6.885e+15 8.829e+15 1.0773e+16 1.1772e+16 1.0638e+16 6.696e+15 9.315e+15 1.1988e+16 1.3554e+16 1.1421e+16 6.534e+15 8.37e+15 1.0098e+16 1.2285e+16 1.0854e+16 6.156e+15 7.398e+15 7.614e+15 8.694e+15 8.883e+15 6.183e+15 6.426e+15 6.561e+15 7.371e+15 8.505e+15 </DataArray>
<DataArray type="Float32" Name="potential" format="ascii">
0 0 0 0 0 0 0 0 0 0 0 0 0 0 0 0 0 0 0 0 0 0 0 0 0 0 0 0 0 0 0 0 0 0 0 0 0 0 0 0 0 0 0 0 0 0 0 0 0 0 0 0 0 0 0 0 0 0 0 0 0 0 0 0 0 0 0 0 0 0 0 0 0 0 0 0 0 0 0 0 0 0 0 0 0 0 0 0 0 0 0 0 0 0 0 0 0 0 0 0 0 0 0 0 0 0 0 0 0 0 0 0 0 0 0 0 0 0 0 0 0 0 0 0 0 0 0 0 0 0 0 0 0 0 0 0 0 0 0 0 0 0 0 0 0 0 0 0 0 0 0 0 0 0 0 0 0 0 0 0 0 0 0 0 0 0 0 0 0 0 0 0 0 0 0 0 0 0 0 0 0 0 0 0 0 0 0 0 0 0 0 0 0 0 0 0 0 0 0 0 0 0 0 0 0 0 0 0 0 0 0 0 0 0 0 0 0 0 0 0 0 0 0 0 0 0 0 0 0 0 0 0 0 0 0 0 0 0 0 0 0 0 0 0 0 0 0 0 0 0 0 0 0 0 0 0 0 0 0 0 0 0 0 0 0 0 0 0 0 0 0 0 0 0 0 0 0 0 0 0 0 0 0 0 0 0 0 0 0 0 0 0 0 0 0 0 0 0 0 0 0 0 0 0 0 0 0 0 0 0 0 0 0 0 0 0 0 0 0 0 0 0 0 0 0 0 0 0 0 0 0 0 0 0 0 0 0 0 0 0 0 0 0 </DataArray>
<DataArray type="Float32" Name="temperature" format="ascii">