<VTKFile type="UnstructuredGrid" version="0.1" byte_order="LittleEndian">
<UnstructuredGrid>
<Piece NumberOfPoints="343" NumberOfCells="216">
<Points>
<DataArray type="Float32" NumberOfComponents="3" format="ascii">
-0.05 -0.05 -0.05 0.05 -0.05 -0.05 0.05 0.05 -0.05 -0.05 0.05 -0.05 -0.05 -0.05 0.05 0.05 -0.05 0.05 0.05 0.05 0.05 -0.05 0.05 0.05 -0.0333333 -0.05 -0.05 -0.0166667 -0.05 -0.05 0 -0.05 -0.05 0.0166667 -0.05 -0.05 0.0333333 -0.05 -0.05 0.05 -0.0333333 -0.05 0.05 -0.0166667 -0.05 0.05 0 -0.05 0.05 0.0166667 -0.05 0.05 0.0333333 -0.05 0.0333333 0.05 -0.05 0.0166667 0.05 -0.05 0 0.05 -0.05 -0.0166667 0.05 -0.05 -0.0333333 0.05 -0.05 -0.05 0.0333333 -0.05 -0.05 0.0166667 -0.05 -0.05 0 -0.05 -0.05 -0.0166667 -0.05 -0.05 -0.0333333 -0.05 -0.0333333 -0.05 0.05 -0.0166667 -0.05 0.05 0 -0.05 0.05 0.0166667 -0.05 0.05 0.0333333 -0.05 0.05 0.05 -0.0333333 0.05 0.05 -0.0166667 0.05 0.05 0 0.05 0.05 0.0166667 0.05 0.05 0.0333333 0.05 0.0333333 0.05 0.05 0.0166667 0.05 0.05 0 0.05 0.05 -0.0166667 0.05 0.05 -0.0333333 0.05 0.05 -0.05 0.0333333 0.05 -0.05 0.0166667 0.05 -0.05 0 0.05 -0.05 -0.0166667 0.05 -0.05 -0.0333333 0.05 -0.05 -0.05 -0.0333333 -0.05 -0.05 -0.0166667 -0.05 -0.05 0 -0.05 -0.05 0.0166667 -0.05 -0.05 0.0333333 0.05 -0.05 -0.0333333 0.05 -0.05 -0.0166667 0.05 -0.05 0 0.05 -0.05 0.0166667 0.05 -0.05 0.0333333 0.05 0.05 -0.0333333 0.05 0.05 -0.0166667 0.05 0.05 0 0.05 0.05 0.0166667 0.05 0.05 0.0333333 -0.05 0.05 -0.0333333 -0.05 0.05 -0.0166667 -0.05 0.05 0 -0.05 0.05 0.0166667 -0.05 0.05 0.0333333 -0.0333333 0.0333333 -0.05 -0.0333333 0.0166667 -0.05 -0.0333333 -3.55271e-18 -0.05 -0.0333333 -0.0166667 -0.05 -0.0333333 -0.0333333 -0.05 -0.0166667 0.0333333 -0.05 -0.0166667 0.0166667 -0.05 -0.0166667 -7.10543e-18 -0.05 -0.0166667 -0.0166667 -0.05 -0.0166667 -0.0333333 -0.05 1.77636e-18 0.0333333 -0.05 5.32907e-18 0.0166667 -0.05 3.55271e-18 -1.77636e-18 -0.05 7.10543e-18 -0.0166667 -0.05 3.55271e-18 -0.0333333 -0.05 0.0166667 0.0333333 -0.05 0.0166667 0.0166667 -0.05 0.0166667 -7.10543e-18 -0.05 0.0166667 -0.0166667 -0.05 0.0166667 -0.0333333 -0.05 0.0333333 0.0333333 -0.05 0.0333333 0.0166667 -0.05 0.0333333 -1.77636e-18 -0.05 0.0333333 -0.0166667 -0.05 0.0333333 -0.0333333 -0.05 -0.0333333 -0.0333333 0.05 -0.0333333 -0.0166667 0.05 -0.0333333 0 0.05 -0.0333333 0.0166667 0.05 -0.0333333 0.0333333 0.05 -0.0166667 -0.0333333 0.05 -0.0166667 -0.0166667 0.05 -0.0166667 0 0.05 -0.0166667 0.0166667 0.05 -0.0166667 0.0333333 0.05 0 -0.0333333 0.05 0 -0.0166667 0.05 0 0 0.05 0 0.0166667 0.05 0 0.0333333 0.05 0.0166667 -0.0333333 0.05 0.0166667 -0.0166667 0.05 0.0166667 0 0.05 0.0166667 0.0166667 0.05 0.0166667 0.0333333 0.05 0.0333333 -0.0333333 0.05 0.0333333 -0.0166667 0.05 0.0333333 1.77636e-18 0.05 0.0333333 0.0166667 0.05 0.0333333 0.0333333 0.05 -0.0333333 -0.05 -0.0333333 -0.0333333 -0.05 -0.0166667 -0.0333333 -0.05 0 -0.0333333 -0.05 0.0166667 -0.0333333 -0.05 0.0333333 -0.0166667 -0.05 -0.0333333 -0.0166667 -0.05 -0.0166667 -0.0166667 -0.05 0 -0.0166667 -0.05 0.0166667 -0.0166667 -0.05 0.0333333 0 -0.05 -0.0333333 0 -0.05 -0.0166667 0 -0.05 0 0 -0.05 0.0166667 0 -0.05 0.0333333 0.0166667 -0.05 -0.0333333 0.0166667 -0.05 -0.0166667 0.0166667 -0.05 0 0.0166667 -0.05 0.0166667 0.0166667 -0.05 0.0333333 0.0333333 -0.05 -0.0333333 0.0333333 -0.05 -0.0166667 0.0333333 -0.05 1.77636e-18 0.0333333 -0.05 0.0166667 0.0333333 -0.05 0.0333333 0.05 -0.0333333 -0.0333333 0.05 -0.0333333 -0.0166667 0.05 -0.0333333 0 0.05 -0.0333333 0.0166667 0.05 -0.0333333 0.0333333 0.05 -0.0166667 -0.0333333 0.05 -0.0166667 -0.0166667 0.05 -0.0166667 0 0.05 -0.0166667 0.0166667 0.05 -0.0166667 0.0333333 0.05 0 -0.0333333 0.05 0 -0.0166667 0.05 0 0 0.05 0 0.0166667 0.05 0 0.0333333 0.05 0.0166667 -0.0333333 0.05 0.0166667 -0.0166667 0.05 0.0166667 0 0.05 0.0166667 0.0166667 0.05 0.0166667 0.0333333 0.05 0.0333333 -0.0333333 0.05 0.0333333 -0.0166667 0.05 0.0333333 1.77636e-18 0.05 0.0333333 0.0166667 0.05 0.0333333 0.0333333 0.0333333 0.05 -0.0333333 0.0333333 0.05 -0.0166667 0.0333333 0.05 0 0.0333333 0.05 0.0166667 0.0333333 0.05 0.0333333 0.0166667 0.05 -0.0333333 0.0166667 0.05 -0.0166667 0.0166667 0.05 0 0.0166667 0.05 0.0166667 0.0166667 0.05 0.0333333 0 0.05 -0.0333333 0 0.05 -0.0166667 0 0.05 0 0 0.05 0.0166667 0 0.05 0.0333333 -0.0166667 0.05 -0.0333333 -0.0166667 0.05 -0.0166667 -0.0166667 0.05 0 -0.0166667 0.05 0.0166667 -0.0166667 0.05 0.0333333 -0.0333333 0.05 -0.0333333 -0.0333333 0.05 -0.0166667 -0.0333333 0.05 1.77636e-18 -0.0333333 0.05 0.0166667 -0.0333333 0.05 0.0333333 -0.05 0.0333333 -0.0333333 -0.05 0.0333333 -0.0166667 -0.05 0.0333333 0 -0.05 0.0333333 0.0166667 -0.05 0.0333333 0.0333333 -0.05 0.0166667 -0.0333333 -0.05 0.0166667 -0.0166667 -0.05 0.0166667 0 -0.05 0.0166667 0.0166667 -0.05 0.0166667 0.0333333 -0.05 0 -0.0333333 -0.05 0 -0.0166667 -0.05 0 0 -0.05 0 0.0166667 -0.05 0 0.0333333 -0.05 -0.0166667 -0.0333333 -0.05 -0.0166667 -0.0166667 -0.05 -0.0166667 0 -0.05 -0.0166667 0.0166667 -0.05 -0.0166667 0.0333333 -0.05 -0.0333333 -0.0333333 -0.05 -0.0333333 -0.0166667 -0.05 -0.0333333 1.77636e-18 -0.05 -0.0333333 0.0166667 -0.05 -0.0333333 0.0333333 -0.0333333 0.0333333 -0.0333333 -0.0333333 0.0333333 -0.0166667 -0.0333333 0.0333333 4.44089e-19 -0.0333333 0.0333333 0.0166667 -0.0333333 0.0333333 0.0333333 -0.0333333 0.0166667 -0.0333333 -0.0333333 0.0166667 -0.0166667 -0.0333333 0.0166667 -4.44089e-18 -0.0333333 0.0166667 0.0166667 -0.0333333 0.0166667 0.0333333 -0.0333333 -6.66134e-18 -0.0333333 -0.0333333 -9.76996e-18 -0.0166667 -0.0333333 -1.77636e-18 -1.77636e-18 -0.0333333 -1.77636e-18 0.0166667 -0.0333333 3.55271e-18 0.0333333 -0.0333333 -0.0166667 -0.0333333 -0.0333333 -0.0166667 -0.0166667 -0.0333333 -0.0166667 1.77636e-18 -0.0333333 -0.0166667 0.0166667 -0.0333333 -0.0166667 0.0333333 -0.0333333 -0.0333333 -0.0333333 -0.0333333 -0.0333333 -0.0166667 -0.0333333 -0.0333333 0 -0.0333333 -0.0333333 0.0166667 -0.0333333 -0.0333333 0.0333333 -0.0166667 0.0333333 -0.0333333 -0.0166667 0.0333333 -0.0166667 -0.0166667 0.0333333 2.66454e-18 -0.0166667 0.0333333 0.0166667 -0.0166667 0.0333333 0.0333333 -0.0166667 0.0166667 -0.0333333 -0.0166667 0.0166667 -0.0166667 -0.0166667 0.0166667 -1.77636e-18 -0.0166667 0.0166667 0.0166667 -0.0166667 0.0166667 0.0333333 -0.0166667 -1.06581e-17 -0.0333333 -0.0166667 -1.15463e-17 -0.0166667 -0.0166667 -3.55271e-18 0 -0.0166667 -8.88178e-18 0.0166667 -0.0166667 -1.77636e-18 0.0333333 -0.0166667 -0.0166667 -0.0333333 -0.0166667 -0.0166667 -0.0166667 -0.0166667 -0.0166667 3.55271e-18 -0.0166667 -0.0166667 0.0166667 -0.0166667 -0.0166667 0.0333333 -0.0166667 -0.0333333 -0.0333333 -0.0166667 -0.0333333 -0.0166667 -0.0166667 -0.0333333 0 -0.0166667 -0.0333333 0.0166667 -0.0166667 -0.0333333 0.0333333 3.44169e-18 0.0333333 -0.0333333 1.02141e-17 0.0333333 -0.0166667 2.66454e-18 0.0333333 -8.88178e-19 6.21725e-18 0.0333333 0.0166667 1.33227e-18 0.0333333 0.0333333 7.99361e-18 0.0166667 -0.0333333 8.43769e-18 0.0166667 -0.0166667 8.88178e-19 0.0166667 8.88178e-19 7.99361e-18 0.0166667 0.0166667 3.55271e-18 0.0166667 0.0333333 3.55271e-18 -1.77636e-18 -0.0333333 9.76996e-18 -9.76996e-18 -0.0166667 0 -8.88178e-19 -8.88178e-19 8.88178e-18 -8.88178e-18 0.0166667 1.77636e-18 -1.77636e-18 0.0333333 1.02141e-17 -0.0166667 -0.0333333 1.24345e-17 -0.0166667 -0.0166667 3.55271e-18 -0.0166667 -1.77636e-18 8.88178e-18 -0.0166667 0.0166667 3.55271e-18 -0.0166667 0.0333333 5.77316e-18 -0.0333333 -0.0333333 4.44089e-18 -0.0333333 -0.0166667 1.77636e-18 -0.0333333 1.77636e-18 5.32907e-18 -0.0333333 0.0166667 0 -0.0333333 0.0333333 0.0166667 0.0333333 -0.0333333 0.0166667 0.0333333 -0.0166667 0.0166667 0.0333333 -2.66454e-18 0.0166667 0.0333333 0.0166667 0.0166667 0.0333333 0.0333333 0.0166667 0.0166667 -0.0333333 0.0166667 0.0166667 -0.0166667 0.0166667 0.0166667 3.10862e-18 0.0166667 0.0166667 0.0166667 0.0166667 0.0166667 0.0333333 0.0166667 -1.24345e-17 -0.0333333 0.0166667 -1.37668e-17 -0.0166667 0.0166667 -3.55271e-18 -1.77636e-18 0.0166667 -6.21725e-18 0.0166667 0.0166667 -8.88178e-19 0.0333333 0.0166667 -0.0166667 -0.0333333 0.0166667 -0.0166667 -0.0166667 0.0166667 -0.0166667 2.66454e-18 0.0166667 -0.0166667 0.0166667 0.0166667 -0.0166667 0.0333333 0.0166667 -0.0333333 -0.0333333 0.0166667 -0.0333333 -0.0166667 0.0166667 -0.0333333 0 0.0166667 -0.0333333 0.0166667 0.0166667 -0.0333333 0.0333333 0.0333333 0.0333333 -0.0333333 0.0333333 0.0333333 -0.0166667 0.0333333 0.0333333 3.33067e-19 0.0333333 0.0333333 0.0166667 0.0333333 0.0333333 0.0333333 0.0333333 0.0166667 -0.0333333 0.0333333 0.0166667 -0.0166667 0.0333333 0.0166667 1.11022e-18 0.0333333 0.0166667 0.0166667 0.0333333 0.0166667 0.0333333 0.0333333 -4.44089e-18 -0.0333333 0.0333333 -4.21885e-18 -0.0166667 0.0333333 8.88178e-19 8.88178e-19 0.0333333 -1.33227e-18 0.0166667 0.0333333 3.55271e-18 0.0333333 0.0333333 -0.0166667 -0.0333333 0.0333333 -0.0166667 -0.0166667 0.0333333 -0.0166667 2.22045e-18 0.0333333 -0.0166667 0.0166667 0.0333333 -0.0166667 0.0333333 0.0333333 -0.0333333 -0.0333333 0.0333333 -0.0333333 -0.0166667 0.0333333 -0.0333333 2.22045e-18 0.0333333 -0.0333333 0.0166667 0.0333333 -0.0333333 0.0333333 </DataArray>
</Points>
<Cells>
<DataArray type="Int32" Name="connectivity" format="ascii">
68 22 3 23 218 188 63 193 218 188 63 193 219 189 64 194 219 189 64 194 220 190 65 195 220 190 65 195 221 191 66 196 221 191 66 196 222 192 67 197 222 192 67 197 97 42 7 43 69 68 23 24 223 218 193 198 223 218 193 198 224 219 194 199 224 219 194 199 225 220 195 200 225 220 195 200 226 221 196 201 226 221 196 201 227 222 197 202 227 222 197 202 96 97 43 44 70 69 24 25 228 223 198 203 228 223 198 203 229 224 199 204 229 224 199 204 230 225 200 205 230 225 200 205 231 226 201 206 231 226 201 206 232 227 202 207 232 227 202 207 95 96 44 45 71 70 25 26 233 228 203 208 233 228 203 208 234 229 204 209 234 229 204 209 235 230 205 210 235 230 205 210 236 231 206 211 236 231 206 211 237 232 207 212 237 232 207 212 94 95 45 46 72 71 26 27 238 233 208 213 238 233 208 213 239 234 209 214 239 234 209 214 240 235 210 215 240 235 210 215 241 236 211 216 241 236 211 216 242 237 212 217 242 237 212 217 93 94 46 47 8 72 27 0 118 238 213 48 118 238 213 48 119 239 214 49 119 239 214 49 120 240 215 50 120 240 215 50 121 241 216 51 121 241 216 51 122 242 217 52 122 242 217 52 28 93 47 4 73 21 22 68 243 183 188 218 243 183 188 218 244 184 189 219 244 184 189 219 245 185 190 220 245 185 190 220 246 186 191 221 246 186 191 221 247 187 192 222 247 187 192 222 102 41 42 97 74 73 68 69 248 243 218 223 248 243 218 223 249 244 219 224 249 244 219 224 250 245 220 225 250 245 220 225 251 246 221 226 251 246 221 226 252 247 222 227 252 247 222 227 101 102 97 96 75 74 69 70 253 248 223 228 253 248 223 228 254 249 224 229 254 249 224 229 255 250 225 230 255 250 225 230 256 251 226 231 256 251 226 231 257 252 227 232 257 252 227 232 100 101 96 95 76 75 70 71 258 253 228 233 258 253 228 233 259 254 229 234 259 254 229 234 260 255 230 235 260 255 230 235 261 256 231 236 261 256 231 236 262 257 232 237 262 257 232 237 99 100 95 94 77 76 71 72 263 258 233 238 263 258 233 238 264 259 234 239 264 259 234 239 265 260 235 240 265 260 235 240 266 261 236 241 266 261 236 241 267 262 237 242 267 262 237 242 98 99 94 93 9 77 72 8 123 263 238 118 123 263 238 118 124 264 239 119 124 264 239 119 125 265 240 120 125 265 240 120 126 266 241 121 126 266 241 121 127 267 242 122 127 267 242 122 29 98 93 28 78 20 21 73 268 178 183 243 268 178 183 243 269 179 184 244 269 179 184 244 270 180 185 245 270 180 185 245 271 181 186 246 271 181 186 246 272 182 187 247 272 182 187 247 107 40 41 102 79 78 73 74 273 268 243 248 273 268 243 248 274 269 244 249 274 269 244 249 275 270 245 250 275 270 245 250 276 271 246 251 276 271 246 251 277 272 247 252 277 272 247 252 106 107 102 101 80 79 74 75 278 273 248 253 278 273 248 253 279 274 249 254 279 274 249 254 280 275 250 255 280 275 250 255 281 276 251 256 281 276 251 256 282 277 252 257 282 277 252 257 105 106 101 100 81 80 75 76 283 278 253 258 283 278 253 258 284 279 254 259 284 279 254 259 285 280 255 260 285 280 255 260 286 281 256 261 286 281 256 261 287 282 257 262 287 282 257 262 104 105 100 99 82 81 76 77 288 283 258 263 288 283 258 263 289 284 259 264 289 284 259 264 290 285 260 265 290 285 260 265 291 286 261 266 291 286 261 266 292 287 262 267 292 287 262 267 103 104 99 98 10 82 77 9 128 288 263 123 128 288 263 123 129 289 264 124 129 289 264 124 130 290 265 125 130 290 265 125 131 291 266 126 131 291 266 126 132 292 267 127 132 292 267 127 30 103 98 29 83 19 20 78 293 173 178 268 293 173 178 268 294 174 179 269 294 174 179 269 295 175 180 270 295 175 180 270 296 176 181 271 296 176 181 271 297 177 182 272 297 177 182 272 112 39 40 107 84 83 78 79 298 293 268 273 298 293 268 273 299 294 269 274 299 294 269 274 300 295 270 275 300 295 270 275 301 296 271 276 301 296 271 276 302 297 272 277 302 297 272 277 111 112 107 106 85 84 79 80 303 298 273 278 303 298 273 278 304 299 274 279 304 299 274 279 305 300 275 280 305 300 275 280 306 301 276 281 306 301 276 281 307 302 277 282 307 302 277 282 110 111 106 105 86 85 80 81 308 303 278 283 308 303 278 283 309 304 279 284 309 304 279 284 310 305 280 285 310 305 280 285 311 306 281 286 311 306 281 286 312 307 282 287 312 307 282 287 109 110 105 104 87 86 81 82 313 308 283 288 313 308 283 288 314 309 284 289 314 309 284 289 315 310 285 290 315 310 285 290 316 311 286 291 316 311 286 291 317 312 287 292 317 312 287 292 108 109 104 103 11 87 82 10 133 313 288 128 133 313 288 128 134 314 289 129 134 314 289 129 135 315 290 130 135 315 290 130 136 316 291 131 136 316 291 131 137 317 292 132 137 317 292 132 31 108 103 30 88 18 19 83 318 168 173 293 318 168 173 293 319 169 174 294 319 169 174 294 320 170 175 295 320 170 175 295 321 171 176 296 321 171 176 296 322 172 177 297 322 172 177 297 117 38 39 112 89 88 83 84 323 318 293 298 323 318 293 298 324 319 294 299 324 319 294 299 325 320 295 300 325 320 295 300 326 321 296 301 326 321 296 301 327 322 297 302 327 322 297 302 116 117 112 111 90 89 84 85 328 323 298 303 328 323 298 303 329 324 299 304 329 324 299 304 330 325 300 305 330 325 300 305 331 326 301 306 331 326 301 306 332 327 302 307 332 327 302 307 115 116 111 110 91 90 85 86 333 328 303 308 333 328 303 308 334 329 304 309 334 329 304 309 335 330 305 310 335 330 305 310 336 331 306 311 336 331 306 311 337 332 307 312 337 332 307 312 114 115 110 109 92 91 86 87 338 333 308 313 338 333 308 313 339 334 309 314 339 334 309 314 340 335 310 315 340 335 310 315 341 336 311 316 341 336 311 316 342 337 312 317 342 337 312 317 113 114 109 108 12 92 87 11 138 338 313 133 138 338 313 133 139 339 314 134 139 339 314 134 140 340 315 135 140 340 315 135 141 341 316 136 141 341 316 136 142 342 317 137 142 342 317 137 32 113 108 31 17 2 18 88 163 58 168 318 163 58 168 318 164 59 169 319 164 59 169 319 165 60 170 320 165 60 170 320 166 61 171 321 166 61 171 321 167 62 172 322 167 62 172 322 37 6 38 117 16 17 88 89 158 163 318 323 158 163 318 323 159 164 319 324 159 164 319 324 160 165 320 325 160 165 320 325 161 166 321 326 161 166 321 326 162 167 322 327 162 167 322 327 36 37 117 116 15 16 89 90 153 158 323 328 153 158 323 328 154 159 324 329 154 159 324 329 155 160 325 330 155 160 325 330 156 161 326 331 156 161 326 331 157 162 327 332 157 162 327 332 35 36 116 115 14 15 90 91 148 153 328 333 148 153 328 333 149 154 329 334 149 154 329 334 150 155 330 335 150 155 330 335 151 156 331 336 151 156 331 336 152 157 332 337 152 157 332 337 34 35 115 114 13 14 91 92 143 148 333 338 143 148 333 338 144 149 334 339 144 149 334 339 145 150 335 340 145 150 335 340 146 151 336 341 146 151 336 341 147 152 337 342 147 152 337 342 33 34 114 113 1 13 92 12 53 143 338 138 53 143 338 138 54 144 339 139 54 144 339 139 55 145 340 140 55 145 340 140 56 146 341 141 56 146 341 141 57 147 342 142 57 147 342 142 5 33 113 32 </DataArray>
<DataArray type="Int32" Name="offsets" format="ascii">
8 16 24 32 40 48 56 64 72 80 88 96 104 112 120 128 136 144 152 160 168 176 184 192 200 208 216 224 232 240 248 256 264 272 280 288 296 304 312 320 328 336 344 352 360 368 376 384 392 400 408 416 424 432 440 448 456 464 472 480 488 496 504 512 520 528 536 544 552 560 568 576 584 592 600 608 616 624 632 640 648 656 664 672 680 688 696 704 712 720 728 736 744 752 760 768 776 784 792 800 808 816 824 832 840 848 856 864 872 880 888 896 904 912 920 928 936 944 952 960 968 976 984 992 1000 1008 1016 1024 1032 1040 1048 1056 1064 1072 1080 1088 1096 1104 1112 1120 1128 1136 1144 1152 1160 1168 1176 1184 1192 1200 1208 1216 1224 1232 1240 1248 1256 1264 1272 1280 1288 1296 1304 1312 1320 1328 1336 1344 1352 1360 1368 1376 1384 1392 1400 1408 1416 1424 1432 1440 1448 1456 1464 1472 1480 1488 1496 1504 1512 1520 1528 1536 1544 1552 1560 1568 1576 1584 1592 1600 1608 1616 1624 1632 1640 1648 1656 1664 1672 1680 1688 1696 1704 1712 1720 1728 </DataArray>
<DataArray type="UInt8" Name="types" format="ascii">
12 12 12 12 12 12 12 12 12 12 12 12 12 12 12 12 12 12 12 12 12 12 12 12 12 12 12 12 12 12 12 12 12 12 12 12 12 12 12 12 12 12 12 12 12 12 12 12 12 12 12 12 12 12 12 12 12 12 12 12 12 12 12 12 12 12 12 12 12 12 12 12 12 12 12 12 12 12 12 12 12 12 12 12 12 12 12 12 12 12 12 12 12 12 12 12 12 12 12 12 12 12 12 12 12 12 12 12 12 12 12 12 12 12 12 12 12 12 12 12 12 12 12 12 12 12 12 12 12 12 12 12 12 12 12 12 12 12 12 12 12 12 12 12 12 12 12 12 12 12 12 12 12 12 12 12 12 12 12 12 12 12 12 12 12 12 12 12 12 12 12 12 12 12 12 12 12 12 12 12 12 12 12 12 12 12 12 12 12 12 12 12 12 12 12 12 12 12 12 12 12 12 12 12 12 12 12 12 12 12 12 12 12 12 12 12 </DataArray>
</Cells>
<CellData Scalars="scalars">
<DataArray type="Float32" Name="number_density" format="ascii">
6.912e+15 5.184e+15 7.992e+15 7.56e+15 6.912e+15 8.856e+15 4.968e+15 1.0152e+16 6.264e+15 5.616e+15 1.0152e+16 7.992e+15 6.912e+15 7.344e+15 5.832e+15 4.536e+15 6.048e+15 9.72e+15 5.832e+15 8.424e+15 6.48e+15 6.696e+15 8.424e+15 9.72e+15 7.344e+15 5.832e+15 9.072e+15 1.0584e+16 7.344e+15 8.208e+15 9.288e+15 6.696e+15 6.912e+15 5.4e+15 6.264e+15 6.264e+15 6.48e+15 5.616e+15 9.72e+15 9.288e+15 9.288e+15 7.56e+15 4.32e+15 6.912e+15 1.0584e+16 1.7064e+16 1.5336e+16 1.188e+16 5.832e+15 9.072e+15 1.3176e+16 1.7496e+16 1.404e+16 1.0584e+16 4.32e+15 1.0368e+16 1.1232e+16 1.296e+16 1.2744e+16 8.208e+15 6.696e+15 7.992e+15 1.1232e+16 1.4904e+16 9.072e+15 1.2312e+16 7.344e+15 8.64e+15 8.208e+15 9.288e+15 6.912e+15 7.776e+15 4.104e+15 8.424e+15 9.936e+15 1.1448e+16 1.2096e+16 1.188e+16 4.104e+15 9.072e+15 1.3824e+16 2.5704e+16 2.0736e+16 1.3392e+16 3.24e+15 1.0152e+16 1.512e+16 4.104e+16 4.2336e+16 1.3608e+16 3.672e+15 7.992e+15 1.4472e+16 2.6784e+16 2.3112e+16 1.08e+16 6.264e+15 1.08e+16 1.1232e+16 1.3176e+16 1.5984e+16 9.072e+15 3.456e+15 6.696e+15 6.912e+15 8.424e+15 7.56e+15 8.208e+15 5.4e+15 8.208e+15 6.696e+15 1.08e+16 9.288e+15 1.1232e+16 6.696e+15 8.64e+15 1.2744e+16 2.5272e+16 2.2032e+16 1.3824e+16 3.24e+15 7.776e+15 1.5552e+16 4.1688e+16 3.1104e+16 1.512e+16 4.968e+15 1.08e+16 1.2528e+16 2.4192e+16 2.0952e+16 1.08e+16 4.968e+15 9.072e+15 9.072e+15 1.0368e+16 1.1232e+16 9.936e+15 6.696e+15 6.048e+15 6.264e+15 7.56e+15 7.776e+15 9.072e+15 6.48e+15 8.64e+15 1.08e+16 1.2528e+16 1.1664e+16 1.0368e+16 7.56e+15 8.208e+15 1.2744e+16 1.404e+16 1.5552e+16 8.64e+15 5.184e+15 1.0152e+16 1.3176e+16 2.0304e+16 1.8144e+16 1.0152e+16 6.696e+15 1.0152e+16 1.08e+16 1.188e+16 1.4904e+16 1.1448e+16 6.048e+15 9.288e+15 9.504e+15 8.856e+15 8.856e+15 7.56e+15 5.184e+15 6.264e+15 5.832e+15 6.912e+15 8.856e+15 9.936e+15 8.424e+15 6.696e+15 9.072e+15 9.072e+15 8.64e+15 1.0152e+16 5.616e+15 7.776e+15 8.208e+15 9.504e+15 1.1448e+16 7.56e+15 5.184e+15 9.072e+15 8.64e+15 8.64e+15 9.504e+15 8.856e+15 4.968e+15 4.752e+15 5.616e+15 5.616e+15 7.344e+15 8.208e+15 6.696e+15 7.776e+15 6.264e+15 5.184e+15 7.128e+15 9.72e+15 8.424e+15 6.264e+15 5.184e+15 7.344e+15 8.424e+15 9.072e+15 </DataArray>
<DataArray type="Float32" Name="potential" format="ascii">
0 0 0 0 0 0 0 0 0 0 0 0 0 0 0 0 0 0 0 0 0 0 0 0 0 0 0 0 0 0 0 0 0 0 0 0 0 0 0 0 0 0 0 0 0 0 0 0 0 0 0 0 0 0 0 0 0 0 0 0 0 0 0 0 0 0 0 0 0 0 0 0 0 0 0 0 0 0 0 0 0 0 0 0 0 0 0 0 0 0 0 0 0 0 0 0 0 0 0 0 0 0 0 0 0 0 0 0 0 0 0 0 0 0 0 0 0 0 0 0 0 0 0 0 0 0 0 0 0 0 0 0 0 0 0 0 0 0 0 0 0 0 0 0 0 0 0 0 0 0 0 0 0 0 0 0 0 0 0 0 0 0 0 0 0 0 0 0 0 0 0 0 0 0 0 0 0 0 0 0 0 0 0 0 0 0 0 0 0 0 0 0 0 0 0 0 0 0 0 0 0 0 0 0 0 0 0 0 0 0 0 0 0 0 0 0 </DataArray>
<DataArray type="Float32" Name="temperature" format="ascii">
237.879 311.726 293.986 288.271 289.837 292.659 167.606 272.663 299.842 357.099 372.072 307.199 212.191 282.874 407.288 500.99 332.929 256.811 240.211 296.141 337.369 324.671 389.156 324.109 214.829 218.817 276.983 264.097 301.808 239.476 220.66 338.118 267.834 303.705 244.493 246.52 211.955 239.852 360.785 392.406 257.034 314.024 213.072 355.076 428.259 485.488 417.605 334.84 278.241 380.772 523.537 549.613 515.355 314.948 337.555 271.849 352.673 516.82 442.753 365.927 360.869 346.828 414.25 446.207 361.154 272.691 228.871 275.323 272.159 332.252 206.936 269.81 281.294 268.254 285.941 375.301 349.374 356.688 194.656 311.444 532.561 692.537 604.766 347.982 303.207 384.617 508.992 920.207 896.366 443.979 377.684 307.317 539.3 744.36 725.532 360.731 430.257 294.398 376.159 486.721 385.574 277.115 282.506 273.573 263.821 360.526 302.555 283.2 198.078 226.322 301.209 427.601 385.485 276.796 279.364 318.572 504.124 699.722 575.188 354.109 325.808 246.68 556.466 897.112 743.441 382.129 362.326 417.043 548.876 751.791 630.379 286.953 197.862 333.941 418.825 421.497 377.987 274.57 343.402 228.064 426.714 311.723 361.062 280.806 262.134 293.33 384.694 371.887 275.979 225.592 263.021 334.776 385.771 344.352 406.691 277.448 272.212 323.54 360.955 578.853 484.99 311.646 251.948 359.687 470.743 624.897 375.881 375.935 294.915 301.125 257.02 362.659 368.351 226.218 220.361 259.576 317.351 333.625 270.292 242.871 299.638 240.345 239.596 374.203 259.18 334.224 289.298 294.721 281.004 279.118 352.878 316.7 222.804 310.182 334.654 393.265 324.942 285.912 248.076 235.184 278.975 283.426 298.841 263.062 246.333 237.739 314.715 280.089 249.589 298.192 247.665 245.272 258.01 232.766 253.321 209.174 </DataArray>
<DataArray type="Float32" Name="velocity" format="ascii">
143.191 209.065 333.655 232.364 135.057 65.2355 323.521 362.906 452.627 391.394 152.283 139.882 289.078 451.809 657.718 363.115 258.493 148.445 286.29 422.472 535.117 456.82 320.094 231.489 211.472 312.498 352.91 360.043 223.887 203.52 109.677 150.125 284.947 219.2 190.863 157.576 228.885 375.792 482.1 394.48 254.916 137.185 351.999 545.002 638.686 539.7 397.317 186.86 505.097 768.453 849.397 732.551 443.7 264.583 552.707 695.986 796.176 700.884 395.162 312.958 307.505 535.269 600.097 502.687 404.874 245.444 171.869 334.467 344.333 363.794 207.711 142.31 378.183 559.64 610.805 502.583 210.096 93.6737 421.978 794.416 858.396 669.661 283.499 141.815 660.13 1013.58 1211.11 894.388 466.983 205.968 574.353 868.594 1110.53 902.478 496.931 259.03 403.076 664.083 801.07 707.254 505.326 301.766 251.153 436.968 512.794 334.032 170.109 167.64 310.652 482.426 576.058 444.857 166.232 37.0246 426.842 759.217 810.546 677.492 248.679 104.515 533.802 1003.3 1143.06 904.957 313.88 137.27 620.654 954.469 1129.27 915.079 508.12 316.776 440.988 738.067 895.313 783.558 451.734 316.888 310.348 423.633 542.307 502.241 304.792 120.097 256.873 349.678 377.346 264.045 75.1101 77.8738 326.491 534.382 696.069 475.921 242.087 109.992 420.165 714.493 931.973 666.198 285.45 221.925 468.029 750.891 907.202 786.577 476.447 262.158 287.856 577.129 680.384 639.222 383.609 275.563 245.452 349.814 416.275 319.434 322.362 168.025 119.147 152.405 251.777 218.988 54.1342 132.812 197.452 346.668 423.269 274.927 185.696 107.183 264.059 454.534 544.954 407.944 281.69 115.45 338.535 519.072 611.253 410.129 262.435 146.833 172.123 425.802 447.388 417.966 343.632 124.423 95.4819 204.164 297.653 299.255 151.799 141.214 </DataArray>
<DataArray type="Float32" Name="E_field" format="ascii">
0 0 0 0 0 0 0 0 0 0 0 0 0 0 0 0 0 0 0 0 0 0 0 0 0 0 0 0 0 0 0 0 0 0 0 0 0 0 0 0 0 0 0 0 0 0 0 0 0 0 0 0 0 0 0 0 0 0 0 0 0 0 0 0 0 0 0 0 0 0 0 0 0 0 0 0 0 0 0 0 0 0 0 0 0 0 0 0 0 0 0 0 0 0 0 0 0 0 0 0 0 0 0 0 0 0 0 0 0 0 0 0 0 0 0 0 0 0 0 0 0 0 0 0 0 0 0 0 0 0 0 0 0 0 0 0 0 0 0 0 0 0 0 0 0 0 0 0 0 0 0 0 0 0 0 0 0 0 0 0 0 0 0 0 0 0 0 0 0 0 0 0 0 0 0 0 0 0 0 0 0 0 0 0 0 0 0 0 0 0 0 0 0 0 0 0 0 0 0 0 0 0 0 0 0 0 0 0 0 0 0 0 0 0 0 0 </DataArray>
</CellData>
<PointData Scalars="number_density">
<DataArray type="Float32" Name="number_density" format="ascii">
9.288e+15 8.424e+15 8.424e+15 6.912e+15 6.264e+15 9.072e+15 1.0152e+16 8.856e+15 8.316e+15 5.4e+15 5.076e+15 5.94e+15 6.804e+15 7.56e+15 5.832e+15 5.076e+15 5.4e+15 7.02e+15 7.452e+15 5.94e+15 4.752e+15 5.292e+15 6.696e+15 5.94e+15 5.94e+15 6.372e+15 6.588e+15 8.316e+15 7.02e+15 7.992e+15 8.64e+15 9.504e+15 9.504e+15 9.396e+15 8.964e+15 8.532e+15 8.208e+15 8.856e+15 1.026e+16 1.08e+16 1.1556e+16 9.72e+15 8.208e+15 8.424e+15 8.856e+15 9.72e+15 8.964e+15 7.236e+15 7.992e+15 6.804e+15 6.156e+15 5.832e+15 6.264e+15 7.344e+15 5.724e+15 6.264e+15 7.884e+15 8.748e+15 7.56e+15 7.884e+15 9.072e+15 8.856e+15 9.396e+15 6.048e+15 6.588e+15 7.776e+15 7.236e+15 7.884e+15 5.67e+15 5.508e+15 5.724e+15 6.048e+15 7.668e+15 4.752e+15 4.374e+15 4.266e+15 5.238e+15 5.94e+15 5.076e+15 4.32e+15 3.78e+15 4.968e+15 5.346e+15 6.534e+15 5.67e+15 5.022e+15 5.67e+15 5.724e+15 7.02e+15 5.886e+15 5.508e+15 6.102e+15 6.588e+15 8.64e+15 9.612e+15 9.558e+15 1.0044e+16 9.072e+15 9.342e+15 1.0098e+16 1.08e+16 1.2366e+16 1.1178e+16 9.072e+15 1.0152e+16 1.2582e+16 1.3986e+16 1.2582e+16 9.126e+15 9.936e+15 1.188e+16 1.1934e+16 1.1016e+16 9.072e+15 9.234e+15 9.666e+15 8.802e+15 9.18e+15 7.992e+15 7.614e+15 7.452e+15 6.966e+15 6.804e+15 6.534e+15 7.614e+15 8.208e+15 8.046e+15 7.614e+15 5.724e+15 6.48e+15 7.29e+15 7.83e+15 8.154e+15 6.048e+15 6.102e+15 6.642e+15 7.776e+15 8.91e+15 6.534e+15 5.886e+15 6.318e+15 7.884e+15 9.072e+15 7.29e+15 6.372e+15 5.994e+15 7.02e+15 8.586e+15 6.048e+15 6.102e+15 5.67e+15 6.318e+15 8.1e+15 5.994e+15 7.02e+15 7.128e+15 7.776e+15 8.478e+15 6.912e+15 8.424e+15 8.748e+15 9.774e+15 9.342e+15 7.128e+15 7.938e+15 8.964e+15 9.666e+15 9.45e+15 7.56e+15 8.802e+15 1.0368e+16 1.0476e+16 1.0206e+16 7.182e+15 8.586e+15 1.0206e+16 1.107e+16 1.0638e+16 6.534e+15 8.316e+15 9.72e+15 1.0908e+16 1.1124e+16 6.156e+15 8.424e+15 1.0098e+16 1.053e+16 1.0206e+16 6.048e+15 7.128e+15 8.64e+15 8.262e+15 8.154e+15 6.804e+15 7.398e+15 6.858e+15 7.56e+15 8.478e+15 7.344e+15 7.398e+15 5.562e+15 6.588e+15 8.478e+15 7.128e+15 7.02e+15 5.886e+15 6.426e+15 8.478e+15 6.858e+15 7.452e+15 8.208e+15 8.262e+15 8.424e+15 7.29e+15 7.128e+15 7.992e+15 7.398e+15 7.02e+15 6.318e+15 7.803e+15 9.261e+15 1.0152e+16 9.747e+15 6.939e+15 8.667e+15 1.0071e+16 1.1286e+16 1.0719e+16 7.263e+15 8.991e+15 9.801e+15 1.0368e+16 9.936e+15 7.101e+15 8.829e+15 1.0395e+16 1.0341e+16 9.504e+15 7.479e+15 8.073e+15 9.45e+15 8.721e+15 8.019e+15 6.129e+15 9.261e+15 1.3446e+16 1.512e+16 1.2771e+16 6.588e+15 1.0989e+16 1.9251e+16 2.4219e+16 1.7739e+16 6.831e+15 1.1448e+16 1.9035e+16 2.3814e+16 1.6929e+16 7.263e+15 1.0665e+16 1.4499e+16 1.6092e+16 1.2663e+16 7.236e+15 8.964e+15 1.0422e+16 1.0665e+16 9.612e+15 6.831e+15 9.693e+15 1.4553e+16 1.7172e+16 1.431e+16 6.615e+15 1.161e+16 2.3868e+16 3.1239e+16 2.1519e+16 6.48e+15 1.1799e+16 2.3922e+16 3.1401e+16 2.0979e+16 7.317e+15 1.0746e+16 1.5228e+16 1.8225e+16 1.3986e+16 6.75e+15 8.262e+15 9.126e+15 1.026e+16 9.855e+15 7.479e+15 9.585e+15 1.3203e+16 1.5147e+16 1.2825e+16 7.182e+15 1.1124e+16 1.944e+16 2.3517e+16 1.6821e+16 7.371e+15 1.1367e+16 1.8765e+16 2.2896e+16 1.6578e+16 7.749e+15 1.0152e+16 1.215e+16 1.3905e+16 1.1961e+16 6.696e+15 7.668e+15 8.046e+15 8.802e+15 9.153e+15 7.425e+15 9.018e+15 1.0746e+16 1.1556e+16 1.0503e+16 7.344e+15 9.747e+15 1.1907e+16 1.3392e+16 1.1232e+16 7.02e+15 9.045e+15 1.0584e+16 1.2042e+16 1.107e+16 7.047e+15 8.019e+15 7.965e+15 8.721e+15 9.396e+15 6.993e+15 7.047e+15 6.885e+15 7.695e+15 8.694e+15 </DataArray>
<DataArray type="Float32" Name="potential" format="ascii">
0 0 0 0 0 0 0 0 0 0 0 0 0 0 0 0 0 0 0 0 0 0 0 0 0 0 0 0 0 0 0 0 0 0 0 0 0 0 0 0 0 0 0 0 0 0 0 0 0 0 0 0 0 0 0 0 0 0 0 0 0 0 0 0 0 0 0 0 0 0 0 0 0 0 0 0 0 0 0 0 0 0 0 0 0 0 0 0 0 0 0 0 0 0 0 0 0 0 0 0 0 0 0 0 0 0 0 0 0 0 0 0 0 0 0 0 0 0 0 0 0 0 0 0 0 0 0 0 0 0 0 0 0 0 0 0 0 0 0 0 0 0 0 0 0 0 0 0 0 0 0 0 0 0 0 0 0 0 0 0 0 0 0 0 0 0 0 0 0 0 0 0 0 0 0 0 0 0 0 0 0 0 0 0 0 0 0 0 0 0 0 0 0 0 0 0 0 0 0 0 0 0 0 0 0 0 0 0 0 0 0 0 0 0 0 0 0 0 0 0 0 0 0 0 0 0 0 0 0 0 0 0 0 0 0 0 0 0 0 0 0 0 0 0 0 0 0 0 0 0 0 0 0 0 0 0 0 0 0 0 0 0 0 0 0 0 0 0 0 0 0 0 0 0 0 0 0 0 0 0 0 0 0 0 0 0 0 0 0 0 0 0 0 0 0 0 0 0 0 0 0 0 0 0 0 0 0 0 0 0 0 0 0 0 0 0 0 0 0 0 0 0 0 0 0 0 0 0 0 0 0 0 0 0 0 0 0 0 0 0 0 0 0 </DataArray>
<DataArray type="Float32" Name="temperature" format="ascii">