<VTKFile type="UnstructuredGrid" version="0.1" byte_order="LittleEndian">
<UnstructuredGrid>
<Piece NumberOfPoints="343" NumberOfCells="216">
<Points>
<DataArray type="Float32" NumberOfComponents="3" format="ascii">
-0.05 -0.05 -0.05 0.05 -0.05 -0.05 0.05 0.05 -0.05 -0.05 0.05 -0.05 -0.05 -0.05 0.05 0.05 -0.05 0.05 0.05 0.05 0.05 -0.05 0.05 0.05 -0.0333333 -0.05 -0.05 -0.0166667 -0.05 -0.05 0 -0.05 -0.05 0.0166667 -0.05 -0.05 0.0333333 -0.05 -0.05 0.05 -0.0333333 -0.05 0.05 -0.0166667 -0.05 0.05 0 -0.05 0.05 0.0166667 -0.05 0.05 0.0333333 -0.05 0.0333333 0.05 -0.05 0.0166667 0.05 -0.05 0 0.05 -0.05 -0.0166667 0.05 -0.05 -0.0333333 0.05 -0.05 -0.05 0.0333333 -0.05 -0.05 0.0166667 -0.05 -0.05 0 -0.05 -0.05 -0.0166667 -0.05 -0.05 -0.0333333 -0.05 -0.0333333 -0.05 0.05 -0.0166667 -0.05 0.05 0 -0.05 0.05 0.0166667 -0.05 0.05 0.0333333 -0.05 0.05 0.05 -0.0333333 0.05 0.05 -0.0166667 0.05 0.05 0 0.05 0.05 0.0166667 0.05 0.05 0.0333333 0.05 0.0333333 0.05 0.05 0.0166667 0.05 0.05 0 0.05 0.05 -0.0166667 0.05 0.05 -0.0333333 0.05 0.05 -0.05 0.0333333 0.05 -0.05 0.0166667 0.05 -0.05 0 0.05 -0.05 -0.0166667 0.05 -0.05 -0.0333333 0.05 -0.05 -0.05 -0.0333333 -0.05 -0.05 -0.0166667 -0.05 -0.05 0 -0.05 -0.05 0.0166667 -0.05 -0.05 0.0333333 0.05 -0.05 -0.0333333 0.05 -0.05 -0.0166667 0.05 -0.05 0 0.05 -0.05 0.0166667 0.05 -0.05 0.0333333 0.05 0.05 -0.0333333 0.05 0.05 -0.0166667 0.05 0.05 0 0.05 0.05 0.0166667 0.05 0.05 0.0333333 -0.05 0.05 -0.0333333 -0.05 0.05 -0.0166667 -0.05 0.05 0 -0.05 0.05 0.0166667 -0.05 0.05 0.0333333 -0.0333333 0.0333333 -0.05 -0.0333333 0.0166667 -0.05 -0.0333333 -3.55271e-18 -0.05 -0.0333333 -0.0166667 -0.05 -0.0333333 -0.0333333 -0.05 -0.0166667 0.0333333 -0.05 -0.0166667 0.0166667 -0.05 -0.0166667 -7.10543e-18 -0.05 -0.0166667 -0.0166667 -0.05 -0.0166667 -0.0333333 -0.05 1.77636e-18 0.0333333 -0.05 5.32907e-18 0.0166667 -0.05 3.55271e-18 -1.77636e-18 -0.05 7.10543e-18 -0.0166667 -0.05 3.55271e-18 -0.0333333 -0.05 0.0166667 0.0333333 -0.05 0.0166667 0.0166667 -0.05 0.0166667 -7.10543e-18 -0.05 0.0166667 -0.0166667 -0.05 0.0166667 -0.0333333 -0.05 0.0333333 0.0333333 -0.05 0.0333333 0.0166667 -0.05 0.0333333 -1.77636e-18 -0.05 0.0333333 -0.0166667 -0.05 0.0333333 -0.0333333 -0.05 -0.0333333 -0.0333333 0.05 -0.0333333 -0.0166667 0.05 -0.0333333 0 0.05 -0.0333333 0.0166667 0.05 -0.0333333 0.0333333 0.05 -0.0166667 -0.0333333 0.05 -0.0166667 -0.0166667 0.05 -0.0166667 0 0.05 -0.0166667 0.0166667 0.05 -0.0166667 0.0333333 0.05 0 -0.0333333 0.05 0 -0.0166667 0.05 0 0 0.05 0 0.0166667 0.05 0 0.0333333 0.05 0.0166667 -0.0333333 0.05 0.0166667 -0.0166667 0.05 0.0166667 0 0.05 0.0166667 0.0166667 0.05 0.0166667 0.0333333 0.05 0.0333333 -0.0333333 0.05 0.0333333 -0.0166667 0.05 0.0333333 1.77636e-18 0.05 0.0333333 0.0166667 0.05 0.0333333 0.0333333 0.05 -0.0333333 -0.05 -0.0333333 -0.0333333 -0.05 -0.0166667 -0.0333333 -0.05 0 -0.0333333 -0.05 0.0166667 -0.0333333 -0.05 0.0333333 -0.0166667 -0.05 -0.0333333 -0.0166667 -0.05 -0.0166667 -0.0166667 -0.05 0 -0.0166667 -0.05 0.0166667 -0.0166667 -0.05 0.0333333 0 -0.05 -0.0333333 0 -0.05 -0.0166667 0 -0.05 0 0 -0.05 0.0166667 0 -0.05 0.0333333 0.0166667 -0.05 -0.0333333 0.0166667 -0.05 -0.0166667 0.0166667 -0.05 0 0.0166667 -0.05 0.0166667 0.0166667 -0.05 0.0333333 0.0333333 -0.05 -0.0333333 0.0333333 -0.05 -0.0166667 0.0333333 -0.05 1.77636e-18 0.0333333 -0.05 0.0166667 0.0333333 -0.05 0.0333333 0.05 -0.0333333 -0.0333333 0.05 -0.0333333 -0.0166667 0.05 -0.0333333 0 0.05 -0.0333333 0.0166667 0.05 -0.0333333 0.0333333 0.05 -0.0166667 -0.0333333 0.05 -0.0166667 -0.0166667 0.05 -0.0166667 0 0.05 -0.0166667 0.0166667 0.05 -0.0166667 0.0333333 0.05 0 -0.0333333 0.05 0 -0.0166667 0.05 0 0 0.05 0 0.0166667 0.05 0 0.0333333 0.05 0.0166667 -0.0333333 0.05 0.0166667 -0.0166667 0.05 0.0166667 0 0.05 0.0166667 0.0166667 0.05 0.0166667 0.0333333 0.05 0.0333333 -0.0333333 0.05 0.0333333 -0.0166667 0.05 0.0333333 1.77636e-18 0.05 0.0333333 0.0166667 0.05 0.0333333 0.0333333 0.0333333 0.05 -0.0333333 0.0333333 0.05 -0.0166667 0.0333333 0.05 0 0.0333333 0.05 0.0166667 0.0333333 0.05 0.0333333 0.0166667 0.05 -0.0333333 0.0166667 0.05 -0.0166667 0.0166667 0.05 0 0.0166667 0.05 0.0166667 0.0166667 0.05 0.0333333 0 0.05 -0.0333333 0 0.05 -0.0166667 0 0.05 0 0 0.05 0.0166667 0 0.05 0.0333333 -0.0166667 0.05 -0.0333333 -0.0166667 0.05 -0.0166667 -0.0166667 0.05 0 -0.0166667 0.05 0.0166667 -0.0166667 0.05 0.0333333 -0.0333333 0.05 -0.0333333 -0.0333333 0.05 -0.0166667 -0.0333333 0.05 1.77636e-18 -0.0333333 0.05 0.0166667 -0.0333333 0.05 0.0333333 -0.05 0.0333333 -0.0333333 -0.05 0.0333333 -0.0166667 -0.05 0.0333333 0 -0.05 0.0333333 0.0166667 -0.05 0.0333333 0.0333333 -0.05 0.0166667 -0.0333333 -0.05 0.0166667 -0.0166667 -0.05 0.0166667 0 -0.05 0.0166667 0.0166667 -0.05 0.0166667 0.0333333 -0.05 0 -0.0333333 -0.05 0 -0.0166667 -0.05 0 0 -0.05 0 0.0166667 -0.05 0 0.0333333 -0.05 -0.0166667 -0.0333333 -0.05 -0.0166667 -0.0166667 -0.05 -0.0166667 0 -0.05 -0.0166667 0.0166667 -0.05 -0.0166667 0.0333333 -0.05 -0.0333333 -0.0333333 -0.05 -0.0333333 -0.0166667 -0.05 -0.0333333 1.77636e-18 -0.05 -0.0333333 0.0166667 -0.05 -0.0333333 0.0333333 -0.0333333 0.0333333 -0.0333333 -0.0333333 0.0333333 -0.0166667 -0.0333333 0.0333333 4.44089e-19 -0.0333333 0.0333333 0.0166667 -0.0333333 0.0333333 0.0333333 -0.0333333 0.0166667 -0.0333333 -0.0333333 0.0166667 -0.0166667 -0.0333333 0.0166667 -4.44089e-18 -0.0333333 0.0166667 0.0166667 -0.0333333 0.0166667 0.0333333 -0.0333333 -6.66134e-18 -0.0333333 -0.0333333 -9.76996e-18 -0.0166667 -0.0333333 -1.77636e-18 -1.77636e-18 -0.0333333 -1.77636e-18 0.0166667 -0.0333333 3.55271e-18 0.0333333 -0.0333333 -0.0166667 -0.0333333 -0.0333333 -0.0166667 -0.0166667 -0.0333333 -0.0166667 1.77636e-18 -0.0333333 -0.0166667 0.0166667 -0.0333333 -0.0166667 0.0333333 -0.0333333 -0.0333333 -0.0333333 -0.0333333 -0.0333333 -0.0166667 -0.0333333 -0.0333333 0 -0.0333333 -0.0333333 0.0166667 -0.0333333 -0.0333333 0.0333333 -0.0166667 0.0333333 -0.0333333 -0.0166667 0.0333333 -0.0166667 -0.0166667 0.0333333 2.66454e-18 -0.0166667 0.0333333 0.0166667 -0.0166667 0.0333333 0.0333333 -0.0166667 0.0166667 -0.0333333 -0.0166667 0.0166667 -0.0166667 -0.0166667 0.0166667 -1.77636e-18 -0.0166667 0.0166667 0.0166667 -0.0166667 0.0166667 0.0333333 -0.0166667 -1.06581e-17 -0.0333333 -0.0166667 -1.15463e-17 -0.0166667 -0.0166667 -3.55271e-18 0 -0.0166667 -8.88178e-18 0.0166667 -0.0166667 -1.77636e-18 0.0333333 -0.0166667 -0.0166667 -0.0333333 -0.0166667 -0.0166667 -0.0166667 -0.0166667 -0.0166667 3.55271e-18 -0.0166667 -0.0166667 0.0166667 -0.0166667 -0.0166667 0.0333333 -0.0166667 -0.0333333 -0.0333333 -0.0166667 -0.0333333 -0.0166667 -0.0166667 -0.0333333 0 -0.0166667 -0.0333333 0.0166667 -0.0166667 -0.0333333 0.0333333 3.44169e-18 0.0333333 -0.0333333 1.02141e-17 0.0333333 -0.0166667 2.66454e-18 0.0333333 -8.88178e-19 6.21725e-18 0.0333333 0.0166667 1.33227e-18 0.0333333 0.0333333 7.99361e-18 0.0166667 -0.0333333 8.43769e-18 0.0166667 -0.0166667 8.88178e-19 0.0166667 8.88178e-19 7.99361e-18 0.0166667 0.0166667 3.55271e-18 0.0166667 0.0333333 3.55271e-18 -1.77636e-18 -0.0333333 9.76996e-18 -9.76996e-18 -0.0166667 0 -8.88178e-19 -8.88178e-19 8.88178e-18 -8.88178e-18 0.0166667 1.77636e-18 -1.77636e-18 0.0333333 1.02141e-17 -0.0166667 -0.0333333 1.24345e-17 -0.0166667 -0.0166667 3.55271e-18 -0.0166667 -1.77636e-18 8.88178e-18 -0.0166667 0.0166667 3.55271e-18 -0.0166667 0.0333333 5.77316e-18 -0.0333333 -0.0333333 4.44089e-18 -0.0333333 -0.0166667 1.77636e-18 -0.0333333 1.77636e-18 5.32907e-18 -0.0333333 0.0166667 0 -0.0333333 0.0333333 0.0166667 0.0333333 -0.0333333 0.0166667 0.0333333 -0.0166667 0.0166667 0.0333333 -2.66454e-18 0.0166667 0.0333333 0.0166667 0.0166667 0.0333333 0.0333333 0.0166667 0.0166667 -0.0333333 0.0166667 0.0166667 -0.0166667 0.0166667 0.0166667 3.10862e-18 0.0166667 0.0166667 0.0166667 0.0166667 0.0166667 0.0333333 0.0166667 -1.24345e-17 -0.0333333 0.0166667 -1.37668e-17 -0.0166667 0.0166667 -3.55271e-18 -1.77636e-18 0.0166667 -6.21725e-18 0.0166667 0.0166667 -8.88178e-19 0.0333333 0.0166667 -0.0166667 -0.0333333 0.0166667 -0.0166667 -0.0166667 0.0166667 -0.0166667 2.66454e-18 0.0166667 -0.0166667 0.0166667 0.0166667 -0.0166667 0.0333333 0.0166667 -0.0333333 -0.0333333 0.0166667 -0.0333333 -0.0166667 0.0166667 -0.0333333 0 0.0166667 -0.0333333 0.0166667 0.0166667 -0.0333333 0.0333333 0.0333333 0.0333333 -0.0333333 0.0333333 0.0333333 -0.0166667 0.0333333 0.0333333 3.33067e-19 0.0333333 0.0333333 0.0166667 0.0333333 0.0333333 0.0333333 0.0333333 0.0166667 -0.0333333 0.0333333 0.0166667 -0.0166667 0.0333333 0.0166667 1.11022e-18 0.0333333 0.0166667 0.0166667 0.0333333 0.0166667 0.0333333 0.0333333 -4.44089e-18 -0.0333333 0.0333333 -4.21885e-18 -0.0166667 0.0333333 8.88178e-19 8.88178e-19 0.0333333 -1.33227e-18 0.0166667 0.0333333 3.55271e-18 0.0333333 0.0333333 -0.0166667 -0.0333333 0.0333333 -0.0166667 -0.0166667 0.0333333 -0.0166667 2.22045e-18 0.0333333 -0.0166667 0.0166667 0.0333333 -0.0166667 0.0333333 0.0333333 -0.0333333 -0.0333333 0.0333333 -0.0333333 -0.0166667 0.0333333 -0.0333333 2.22045e-18 0.0333333 -0.0333333 0.0166667 0.0333333 -0.0333333 0.0333333 </DataArray>
</Points>
<Cells>
<DataArray type="Int32" Name="connectivity" format="ascii">
68 22 3 23 218 188 63 193 218 188 63 193 219 189 64 194 219 189 64 194 220 190 65 195 220 190 65 195 221 191 66 196 221 191 66 196 222 192 67 197 222 192 67 197 97 42 7 43 69 68 23 24 223 218 193 198 223 218 193 198 224 219 194 199 224 219 194 199 225 220 195 200 225 220 195 200 226 221 196 201 226 221 196 201 227 222 197 202 227 222 197 202 96 97 43 44 70 69 24 25 228 223 198 203 228 223 198 203 229 224 199 204 229 224 199 204 230 225 200 205 230 225 200 205 231 226 201 206 231 226 201 206 232 227 202 207 232 227 202 207 95 96 44 45 71 70 25 26 233 228 203 208 233 228 203 208 234 229 204 209 234 229 204 209 235 230 205 210 235 230 205 210 236 231 206 211 236 231 206 211 237 232 207 212 237 232 207 212 94 95 45 46 72 71 26 27 238 233 208 213 238 233 208 213 239 234 209 214 239 234 209 214 240 235 210 215 240 235 210 215 241 236 211 216 241 236 211 216 242 237 212 217 242 237 212 217 93 94 46 47 8 72 27 0 118 238 213 48 118 238 213 48 119 239 214 49 119 239 214 49 120 240 215 50 120 240 215 50 121 241 216 51 121 241 216 51 122 242 217 52 122 242 217 52 28 93 47 4 73 21 22 68 243 183 188 218 243 183 188 218 244 184 189 219 244 184 189 219 245 185 190 220 245 185 190 220 246 186 191 221 246 186 191 221 247 187 192 222 247 187 192 222 102 41 42 97 74 73 68 69 248 243 218 223 248 243 218 223 249 244 219 224 249 244 219 224 250 245 220 225 250 245 220 225 251 246 221 226 251 246 221 226 252 247 222 227 252 247 222 227 101 102 97 96 75 74 69 70 253 248 223 228 253 248 223 228 254 249 224 229 254 249 224 229 255 250 225 230 255 250 225 230 256 251 226 231 256 251 226 231 257 252 227 232 257 252 227 232 100 101 96 95 76 75 70 71 258 253 228 233 258 253 228 233 259 254 229 234 259 254 229 234 260 255 230 235 260 255 230 235 261 256 231 236 261 256 231 236 262 257 232 237 262 257 232 237 99 100 95 94 77 76 71 72 263 258 233 238 263 258 233 238 264 259 234 239 264 259 234 239 265 260 235 240 265 260 235 240 266 261 236 241 266 261 236 241 267 262 237 242 267 262 237 242 98 99 94 93 9 77 72 8 123 263 238 118 123 263 238 118 124 264 239 119 124 264 239 119 125 265 240 120 125 265 240 120 126 266 241 121 126 266 241 121 127 267 242 122 127 267 242 122 29 98 93 28 78 20 21 73 268 178 183 243 268 178 183 243 269 179 184 244 269 179 184 244 270 180 185 245 270 180 185 245 271 181 186 246 271 181 186 246 272 182 187 247 272 182 187 247 107 40 41 102 79 78 73 74 273 268 243 248 273 268 243 248 274 269 244 249 274 269 244 249 275 270 245 250 275 270 245 250 276 271 246 251 276 271 246 251 277 272 247 252 277 272 247 252 106 107 102 101 80 79 74 75 278 273 248 253 278 273 248 253 279 274 249 254 279 274 249 254 280 275 250 255 280 275 250 255 281 276 251 256 281 276 251 256 282 277 252 257 282 277 252 257 105 106 101 100 81 80 75 76 283 278 253 258 283 278 253 258 284 279 254 259 284 279 254 259 285 280 255 260 285 280 255 260 286 281 256 261 286 281 256 261 287 282 257 262 287 282 257 262 104 105 100 99 82 81 76 77 288 283 258 263 288 283 258 263 289 284 259 264 289 284 259 264 290 285 260 265 290 285 260 265 291 286 261 266 291 286 261 266 292 287 262 267 292 287 262 267 103 104 99 98 10 82 77 9 128 288 263 123 128 288 263 123 129 289 264 124 129 289 264 124 130 290 265 125 130 290 265 125 131 291 266 126 131 291 266 126 132 292 267 127 132 292 267 127 30 103 98 29 83 19 20 78 293 173 178 268 293 173 178 268 294 174 179 269 294 174 179 269 295 175 180 270 295 175 180 270 296 176 181 271 296 176 181 271 297 177 182 272 297 177 182 272 112 39 40 107 84 83 78 79 298 293 268 273 298 293 268 273 299 294 269 274 299 294 269 274 300 295 270 275 300 295 270 275 301 296 271 276 301 296 271 276 302 297 272 277 302 297 272 277 111 112 107 106 85 84 79 80 303 298 273 278 303 298 273 278 304 299 274 279 304 299 274 279 305 300 275 280 305 300 275 280 306 301 276 281 306 301 276 281 307 302 277 282 307 302 277 282 110 111 106 105 86 85 80 81 308 303 278 283 308 303 278 283 309 304 279 284 309 304 279 284 310 305 280 285 310 305 280 285 311 306 281 286 311 306 281 286 312 307 282 287 312 307 282 287 109 110 105 104 87 86 81 82 313 308 283 288 313 308 283 288 314 309 284 289 314 309 284 289 315 310 285 290 315 310 285 290 316 311 286 291 316 311 286 291 317 312 287 292 317 312 287 292 108 109 104 103 11 87 82 10 133 313 288 128 133 313 288 128 134 314 289 129 134 314 289 129 135 315 290 130 135 315 290 130 136 316 291 131 136 316 291 131 137 317 292 132 137 317 292 132 31 108 103 30 88 18 19 83 318 168 173 293 318 168 173 293 319 169 174 294 319 169 174 294 320 170 175 295 320 170 175 295 321 171 176 296 321 171 176 296 322 172 177 297 322 172 177 297 117 38 39 112 89 88 83 84 323 318 293 298 323 318 293 298 324 319 294 299 324 319 294 299 325 320 295 300 325 320 295 300 326 321 296 301 326 321 296 301 327 322 297 302 327 322 297 302 116 117 112 111 90 89 84 85 328 323 298 303 328 323 298 303 329 324 299 304 329 324 299 304 330 325 300 305 330 325 300 305 331 326 301 306 331 326 301 306 332 327 302 307 332 327 302 307 115 116 111 110 91 90 85 86 333 328 303 308 333 328 303 308 334 329 304 309 334 329 304 309 335 330 305 310 335 330 305 310 336 331 306 311 336 331 306 311 337 332 307 312 337 332 307 312 114 115 110 109 92 91 86 87 338 333 308 313 338 333 308 313 339 334 309 314 339 334 309 314 340 335 310 315 340 335 310 315 341 336 311 316 341 336 311 316 342 337 312 317 342 337 312 317 113 114 109 108 12 92 87 11 138 338 313 133 138 338 313 133 139 339 314 134 139 339 314 134 140 340 315 135 140 340 315 135 141 341 316 136 141 341 316 136 142 342 317 137 142 342 317 137 32 113 108 31 17 2 18 88 163 58 168 318 163 58 168 318 164 59 169 319 164 59 169 319 165 60 170 320 165 60 170 320 166 61 171 321 166 61 171 321 167 62 172 322 167 62 172 322 37 6 38 117 16 17 88 89 158 163 318 323 158 163 318 323 159 164 319 324 159 164 319 324 160 165 320 325 160 165 320 325 161 166 321 326 161 166 321 326 162 167 322 327 162 167 322 327 36 37 117 116 15 16 89 90 153 158 323 328 153 158 323 328 154 159 324 329 154 159 324 329 155 160 325 330 155 160 325 330 156 161 326 331 156 161 326 331 157 162 327 332 157 162 327 332 35 36 116 115 14 15 90 91 148 153 328 333 148 153 328 333 149 154 329 334 149 154 329 334 150 155 330 335 150 155 330 335 151 156 331 336 151 156 331 336 152 157 332 337 152 157 332 337 34 35 115 114 13 14 91 92 143 148 333 338 143 148 333 338 144 149 334 339 144 149 334 339 145 150 335 340 145 150 335 340 146 151 336 341 146 151 336 341 147 152 337 342 147 152 337 342 33 34 114 113 1 13 92 12 53 143 338 138 53 143 338 138 54 144 339 139 54 144 339 139 55 145 340 140 55 145 340 140 56 146 341 141 56 146 341 141 57 147 342 142 57 147 342 142 5 33 113 32 </DataArray>
<DataArray type="Int32" Name="offsets" format="ascii">
8 16 24 32 40 48 56 64 72 80 88 96 104 112 120 128 136 144 152 160 168 176 184 192 200 208 216 224 232 240 248 256 264 272 280 288 296 304 312 320 328 336 344 352 360 368 376 384 392 400 408 416 424 432 440 448 456 464 472 480 488 496 504 512 520 528 536 544 552 560 568 576 584 592 600 608 616 624 632 640 648 656 664 672 680 688 696 704 712 720 728 736 744 752 760 768 776 784 792 800 808 816 824 832 840 848 856 864 872 880 888 896 904 912 920 928 936 944 952 960 968 976 984 992 1000 1008 1016 1024 1032 1040 1048 1056 1064 1072 1080 1088 1096 1104 1112 1120 1128 1136 1144 1152 1160 1168 1176 1184 1192 1200 1208 1216 1224 1232 1240 1248 1256 1264 1272 1280 1288 1296 1304 1312 1320 1328 1336 1344 1352 1360 1368 1376 1384 1392 1400 1408 1416 1424 1432 1440 1448 1456 1464 1472 1480 1488 1496 1504 1512 1520 1528 1536 1544 1552 1560 1568 1576 1584 1592 1600 1608 1616 1624 1632 1640 1648 1656 1664 1672 1680 1688 1696 1704 1712 1720 1728 </DataArray>
<DataArray type="UInt8" Name="types" format="ascii">
12 12 12 12 12 12 12 12 12 12 12 12 12 12 12 12 12 12 12 12 12 12 12 12 12 12 12 12 12 12 12 12 12 12 12 12 12 12 12 12 12 12 12 12 12 12 12 12 12 12 12 12 12 12 12 12 12 12 12 12 12 12 12 12 12 12 12 12 12 12 12 12 12 12 12 12 12 12 12 12 12 12 12 12 12 12 12 12 12 12 12 12 12 12 12 12 12 12 12 12 12 12 12 12 12 12 12 12 12 12 12 12 12 12 12 12 12 12 12 12 12 12 12 12 12 12 12 12 12 12 12 12 12 12 12 12 12 12 12 12 12 12 12 12 12 12 12 12 12 12 12 12 12 12 12 12 12 12 12 12 12 12 12 12 12 12 12 12 12 12 12 12 12 12 12 12 12 12 12 12 12 12 12 12 12 12 12 12 12 12 12 12 12 12 12 12 12 12 12 12 12 12 12 12 12 12 12 12 12 12 12 12 12 12 12 12 </DataArray>
</Cells>
<CellData Scalars="scalars">
<DataArray type="Float32" Name="number_density" format="ascii">
7.344e+15 6.048e+15 7.56e+15 7.56e+15 7.776e+15 8.424e+15 5.616e+15 8.856e+15 6.264e+15 6.912e+15 9.72e+15 7.776e+15 7.992e+15 7.992e+15 5.616e+15 5.832e+15 6.264e+15 1.1016e+16 6.48e+15 9.504e+15 5.4e+15 6.912e+15 9.288e+15 9.504e+15 7.344e+15 6.264e+15 1.0152e+16 1.1016e+16 7.344e+15 8.424e+15 9.72e+15 6.48e+15 7.344e+15 6.048e+15 6.696e+15 6.696e+15 6.48e+15 6.264e+15 9.504e+15 1.0368e+16 9.072e+15 7.344e+15 4.752e+15 7.128e+15 1.1016e+16 1.6632e+16 1.3824e+16 1.2312e+16 5.616e+15 9.936e+15 1.2312e+16 1.5984e+16 1.5552e+16 9.72e+15 4.752e+15 9.504e+15 1.2744e+16 1.3824e+16 1.1448e+16 8.424e+15 7.128e+15 7.56e+15 1.1448e+16 1.3176e+16 9.72e+15 1.1232e+16 7.992e+15 9.072e+15 8.64e+15 1.0152e+16 6.48e+15 8.208e+15 5.184e+15 8.424e+15 1.0152e+16 1.2528e+16 1.1448e+16 1.1016e+16 5.616e+15 1.0152e+16 1.296e+16 2.2032e+16 1.7496e+16 1.2528e+16 3.888e+15 9.72e+15 1.5552e+16 4.0392e+16 3.2184e+16 1.4472e+16 4.32e+15 8.64e+15 1.2312e+16 2.5056e+16 2.268e+16 9.288e+15 6.48e+15 1.188e+16 1.1016e+16 1.3608e+16 1.512e+16 9.72e+15 4.32e+15 7.128e+15 7.992e+15 7.56e+15 8.856e+15 8.208e+15 6.048e+15 8.856e+15 7.344e+15 1.0584e+16 9.288e+15 1.1232e+16 8.208e+15 8.856e+15 1.1448e+16 2.2464e+16 1.8576e+16 1.3392e+16 3.888e+15 9.288e+15 1.7712e+16 3.3264e+16 2.6352e+16 1.3392e+16 5.4e+15 9.504e+15 1.3392e+16 2.268e+16 1.8144e+16 1.1664e+16 6.696e+15 8.208e+15 1.08e+16 1.1016e+16 1.0152e+16 1.0584e+16 5.832e+15 7.56e+15 6.696e+15 7.56e+15 7.992e+15 9.288e+15 7.776e+15 7.56e+15 1.0152e+16 1.3176e+16 1.0152e+16 1.1016e+16 7.128e+15 9.504e+15 1.4904e+16 1.1448e+16 1.5984e+16 8.424e+15 5.4e+15 1.2312e+16 1.3176e+16 1.7928e+16 1.6416e+16 1.0152e+16 6.48e+15 9.936e+15 1.1232e+16 1.1016e+16 1.5336e+16 1.1448e+16 6.264e+15 9.504e+15 8.64e+15 9.72e+15 8.64e+15 8.64e+15 6.696e+15 6.264e+15 6.264e+15 7.776e+15 9.072e+15 9.72e+15 8.64e+15 7.56e+15 9.288e+15 8.856e+15 8.64e+15 9.936e+15 6.048e+15 7.776e+15 8.856e+15 9.504e+15 1.188e+16 8.424e+15 6.264e+15 8.64e+15 8.856e+15 9.288e+15 1.1016e+16 8.856e+15 5.616e+15 5.184e+15 7.128e+15 6.696e+15 6.696e+15 8.424e+15 6.912e+15 7.992e+15 7.344e+15 5.832e+15 8.64e+15 9.936e+15 8.856e+15 5.832e+15 5.832e+15 7.776e+15 8.64e+15 9.288e+15 </DataArray>
<DataArray type="Float32" Name="potential" format="ascii">
0 0 0 0 0 0 0 0 0 0 0 0 0 0 0 0 0 0 0 0 0 0 0 0 0 0 0 0 0 0 0 0 0 0 0 0 0 0 0 0 0 0 0 0 0 0 0 0 0 0 0 0 0 0 0 0 0 0 0 0 0 0 0 0 0 0 0 0 0 0 0 0 0 0 0 0 0 0 0 0 0 0 0 0 0 0 0 0 0 0 0 0 0 0 0 0 0 0 0 0 0 0 0 0 0 0 0 0 0 0 0 0 0 0 0 0 0 0 0 0 0 0 0 0 0 0 0 0 0 0 0 0 0 0 0 0 0 0 0 0 0 0 0 0 0 0 0 0 0 0 0 0 0 0 0 0 0 0 0 0 0 0 0 0 0 0 0 0 0 0 0 0 0 0 0 0 0 0 0 0 0 0 0 0 0 0 0 0 0 0 0 0 0 0 0 0 0 0 0 0 0 0 0 0 0 0 0 0 0 0 0 0 0 0 0 0 </DataArray>
<DataArray type="Float32" Name="temperature" format="ascii">
259.25 306.186 300.668 297.732 295.577 289.434 166.002 279.316 300.134 362.565 400.449 263.271 214.422 273.993 427.63 479.685 306.564 286.426 260.691 312.309 307.913 353.575 347.928 317.816 200.849 224.468 293.586 244.022 330.052 261.571 235.198 312.689 303.24 292.096 253.184 242.427 200.147 277.939 356.417 364.858 251.275 320.273 200.387 396.956 462.314 453.417 355.638 337.212 321.687 346.705 475.393 544.613 475.69 311.575 290.389 293.296 378.746 490.765 364.341 327.975 355.04 306.296 363.027 388.868 326.354 260.219 244.406 272.64 257.987 324.682 214.374 268.409 278.659 290.84 284.862 387.904 311.102 355.357 252.185 332.046 559.013 592.492 514.513 326.288 302.457 371.075 532.135 811.229 718.325 395.263 340.948 351.812 481.519 690.339 618.757 371.33 368.909 334.345 298.481 489.048 343.031 268.588 331.472 291.85 252.872 338.167 325.448 280.142 180.767 241.994 347.971 435.299 350.605 237.784 269.491 315.033 489.135 641.004 473.3 318.687 318.295 263.979 547.295 785.257 663.107 386.84 341.726 377.44 576.749 638.719 621.653 291.187 267.116 356.839 413.526 328.375 391.282 277.089 331.5 244.098 420.268 307.343 329.557 294.956 259.571 294.698 335.519 368.894 263.568 244.485 258.017 310.167 369.361 353.181 431.117 277.121 273.547 293.486 393.838 501.884 389.737 321.116 254.134 366.596 391.083 494.851 409.253 357.03 283.966 318.3 239.922 379.495 335.827 259.253 260.237 196.154 311.765 310.3 265.256 237.053 295.485 247.953 245.374 345.881 257.959 325.303 292.102 311.222 268.27 317.626 320.468 308.979 231.463 282.788 322.839 367.592 350.551 307.038 248.078 276.986 283.376 269.729 257.379 248.012 268.926 236.142 272.246 336.821 249.881 285.862 255.047 246.981 252.096 239.87 227.151 227.587 </DataArray>
<DataArray type="Float32" Name="velocity" format="ascii">
162.195 227.502 272.948 249.856 135.03 42.9694 302.586 313.432 437.375 369.087 140.724 160.154 290.254 429.07 600.623 367.604 226.22 137.819 267.491 424.922 475.053 433.066 309.489 204.48 186.075 286.817 332.858 347.191 229.777 203.975 101.11 165.435 211.367 207.458 200.414 183.144 181.106 374.776 413.6 340.005 226.858 114.712 308.652 515.47 616.349 522.55 373.255 174.869 451.345 709.776 786.541 681.354 381.917 239.988 520.892 639.927 760.474 675.537 383.321 322.109 287.882 513.312 591.318 478.097 357.294 211.534 160.783 297.449 335.005 320.603 169.341 108.425 370.697 513.312 558.987 479.28 136.839 116.454 446.928 723.509 811.386 613.801 289.232 116.435 601.363 924.629 1126.48 838.146 356.549 239.115 542.061 827.928 1063.46 877.701 462.936 207.912 398.645 601.195 761.679 665.037 468.406 291.483 232.996 418.187 454.498 349.806 163.149 155.402 330.034 439.418 510.875 384.525 151.535 14.3206 434.049 702.125 845.883 572.644 212.719 91.1065 560.953 983.935 1086.85 805.467 245.384 111.161 566.685 898.294 1033.97 888.865 495.817 285.122 423.978 714.646 888.626 716.657 448.02 294.662 272.193 415.72 518.805 446.688 278.41 107.966 233.536 345.386 363.491 231.633 64.7044 88.2555 267.03 538.388 626.885 471.987 235.869 112.342 391.689 684.771 848.155 634.23 272.596 211.79 407.556 721.735 832.247 759.131 451.28 237.284 252.629 528.718 637.831 607.401 363.848 264.221 216.73 322.656 456.677 280.067 308.385 153.148 109.669 150.517 237.908 197.28 51.2935 125.776 186.999 306.291 378.979 246.606 186.682 114.631 273.705 404.401 501.615 376.884 247.087 111.518 338.435 493.322 536.996 406.879 284.19 136.269 154.246 387.257 457.522 360.621 325.189 116.311 102.008 173.924 293.053 263.25 162.019 141.038 </DataArray>
<DataArray type="Float32" Name="E_field" format="ascii">
0 0 0 0 0 0 0 0 0 0 0 0 0 0 0 0 0 0 0 0 0 0 0 0 0 0 0 0 0 0 0 0 0 0 0 0 0 0 0 0 0 0 0 0 0 0 0 0 0 0 0 0 0 0 0 0 0 0 0 0 0 0 0 0 0 0 0 0 0 0 0 0 0 0 0 0 0 0 0 0 0 0 0 0 0 0 0 0 0 0 0 0 0 0 0 0 0 0 0 0 0 0 0 0 0 0 0 0 0 0 0 0 0 0 0 0 0 0 0 0 0 0 0 0 0 0 0 0 0 0 0 0 0 0 0 0 0 0 0 0 0 0 0 0 0 0 0 0 0 0 0 0 0 0 0 0 0 0 0 0 0 0 0 0 0 0 0 0 0 0 0 0 0 0 0 0 0 0 0 0 0 0 0 0 0 0 0 0 0 0 0 0 0 0 0 0 0 0 0 0 0 0 0 0 0 0 0 0 0 0 0 0 0 0 0 0 </DataArray>
</CellData>
<PointData Scalars="number_density">
<DataArray type="Float32" Name="number_density" format="ascii">
9.72e+15 8.856e+15 8.64e+15 7.344e+15 6.696e+15 9.288e+15 9.936e+15 8.424e+15 8.856e+15 6.156e+15 5.076e+15 6.264e+15 7.776e+15 7.884e+15 6.264e+15 5.94e+15 6.156e+15 7.344e+15 8.208e+15 6.912e+15 5.616e+15 5.832e+15 6.912e+15 6.48e+15 6.804e+15 7.236e+15 6.912e+15 8.532e+15 7.452e+15 8.208e+15 8.748e+15 9.504e+15 9.504e+15 9.612e+15 9.18e+15 8.64e+15 8.64e+15 9.18e+15 1.0476e+16 1.1124e+16 1.1124e+16 9.18e+15 7.884e+15 8.1e+15 9.396e+15 1.026e+16 8.964e+15 7.56e+15 8.1e+15 6.912e+15 6.696e+15 6.372e+15 6.696e+15 7.344e+15 5.832e+15 6.804e+15 8.208e+15 8.964e+15 8.1e+15 8.424e+15 9.072e+15 8.748e+15 9.288e+15 6.696e+15 6.804e+15 7.56e+15 7.668e+15 8.1e+15 6.048e+15 5.994e+15 6.21e+15 6.426e+15 8.046e+15 5.508e+15 4.968e+15 4.644e+15 5.67e+15 6.48e+15 6.264e+15 5.4e+15 4.374e+15 5.724e+15 5.832e+15 7.29e+15 6.156e+15 5.292e+15 6.21e+15 6.372e+15 7.398e+15 6.21e+15 5.94e+15 6.318e+15 7.182e+15 8.64e+15 9.396e+15 9.666e+15 1.0206e+16 8.964e+15 9.342e+15 9.666e+15 1.0476e+16 1.2258e+16 1.08e+16 9.45e+15 1.0314e+16 1.2204e+16 1.3446e+16 1.2042e+16 9.558e+15 1.0584e+16 1.1664e+16 1.134e+16 1.1016e+16 9.396e+15 9.612e+15 9.72e+15 8.964e+15 9.45e+15 8.316e+15 7.884e+15 8.046e+15 7.344e+15 7.02e+15 7.128e+15 8.208e+15 8.586e+15 8.262e+15 7.938e+15 6.21e+15 7.344e+15 7.452e+15 7.992e+15 8.586e+15 6.588e+15 6.696e+15 7.074e+15 8.1e+15 9.018e+15 6.912e+15 6.048e+15 6.912e+15 8.316e+15 9.18e+15 7.398e+15 6.75e+15 6.696e+15 7.722e+15 9.126e+15 6.426e+15 6.912e+15 6.75e+15 6.966e+15 8.424e+15 6.426e+15 7.452e+15 7.992e+15 8.424e+15 8.748e+15 7.182e+15 8.532e+15 9.126e+15 1.0422e+16 1.0044e+16 7.506e+15 8.37e+15 9.126e+15 9.72e+15 9.72e+15 7.884e+15 8.64e+15 1.0368e+16 1.0206e+16 9.936e+15 7.56e+15 8.478e+15 1.0314e+16 1.08e+16 1.0422e+16 7.128e+15 8.694e+15 1.0152e+16 1.0962e+16 1.0746e+16 6.588e+15 8.586e+15 1.0638e+16 1.0854e+16 9.72e+15 6.534e+15 7.344e+15 8.748e+15 8.694e+15 8.154e+15 6.966e+15 7.182e+15 7.074e+15 7.992e+15 8.424e+15 7.614e+15 7.182e+15 6.156e+15 7.182e+15 8.694e+15 7.992e+15 7.128e+15 5.94e+15 7.074e+15 9.018e+15 7.398e+15 7.83e+15 8.37e+15 8.64e+15 8.64e+15 7.452e+15 7.56e+15 8.64e+15 7.776e+15 7.29e+15 6.561e+15 7.83e+15 9.477e+15 1.0233e+16 9.531e+15 7.236e+15 8.64e+15 1.0071e+16 1.134e+16 1.0773e+16 7.722e+15 9.126e+15 9.828e+15 1.0638e+16 1.0152e+16 7.317e+15 9.072e+15 1.0584e+16 1.0341e+16 9.423e+15 7.695e+15 8.37e+15 9.747e+15 8.829e+15 8.1e+15 6.75e+15 9.45e+15 1.3149e+16 1.4175e+16 1.188e+16 7.101e+15 1.1097e+16 1.836e+16 2.1762e+16 1.6011e+16 7.047e+15 1.134e+16 1.8522e+16 2.214e+16 1.5471e+16 7.533e+15 1.0638e+16 1.4148e+16 1.5579e+16 1.2204e+16 7.695e+15 9.342e+15 1.0449e+16 1.0584e+16 9.693e+15 7.668e+15 9.774e+15 1.3689e+16 1.5552e+16 1.3122e+16 7.452e+15 1.1961e+16 2.1978e+16 2.6595e+16 1.8549e+16 6.831e+15 1.2015e+16 2.2545e+16 2.7594e+16 1.8522e+16 7.641e+15 1.0719e+16 1.4985e+16 1.7307e+16 1.3419e+16 7.263e+15 8.91e+15 9.531e+15 1.0233e+16 9.99e+15 7.992e+15 9.828e+15 1.269e+16 1.3959e+16 1.2258e+16 8.073e+15 1.215e+16 1.7793e+16 2.0304e+16 1.5336e+16 7.776e+15 1.2069e+16 1.755e+16 2.0142e+16 1.5363e+16 7.749e+15 1.0152e+16 1.2312e+16 1.3338e+16 1.1826e+16 7.128e+15 7.992e+15 8.559e+15 8.991e+15 9.261e+15 7.749e+15 9.45e+15 1.0773e+16 1.1205e+16 1.0557e+16 7.884e+15 1.0503e+16 1.1745e+16 1.2933e+16 1.1394e+16 7.479e+15 9.558e+15 1.0665e+16 1.1799e+16 1.1043e+16 7.236e+15 8.37e+15 8.451e+15 9.072e+15 9.72e+15 7.29e+15 7.209e+15 7.398e+15 8.262e+15 9.072e+15 </DataArray>
<DataArray type="Float32" Name="potential" format="ascii">
0 0 0 0 0 0 0 0 0 0 0 0 0 0 0 0 0 0 0 0 0 0 0 0 0 0 0 0 0 0 0 0 0 0 0 0 0 0 0 0 0 0 0 0 0 0 0 0 0 0 0 0 0 0 0 0 0 0 0 0 0 0 0 0 0 0 0 0 0 0 0 0 0 0 0 0 0 0 0 0 0 0 0 0 0 0 0 0 0 0 0 0 0 0 0 0 0 0 0 0 0 0 0 0 0 0 0 0 0 0 0 0 0 0 0 0 0 0 0 0 0 0 0 0 0 0 0 0 0 0 0 0 0 0 0 0 0 0 0 0 0 0 0 0 0 0 0 0 0 0 0 0 0 0 0 0 0 0 0 0 0 0 0 0 0 0 0 0 0 0 0 0 0 0 0 0 0 0 0 0 0 0 0 0 0 0 0 0 0 0 0 0 0 0 0 0 0 0 0 0 0 0 0 0 0 0 0 0 0 0 0 0 0 0 0 0 0 0 0 0 0 0 0 0 0 0 0 0 0 0 0 0 0 0 0 0 0 0 0 0 0 0 0 0 0 0 0 0 0 0 0 0 0 0 0 0 0 0 0 0 0 0 0 0 0 0 0 0 0 0 0 0 0 0 0 0 0 0 0 0 0 0 0 0 0 0 0 0 0 0 0 0 0 0 0 0 0 0 0 0 0 0 0 0 0 0 0 0 0 0 0 0 0 0 0 0 0 0 0 0 0 0 0 0 0 0 0 0 0 0 0 0 0 0 0 0 0 0 0 0 0 0 0 </DataArray>
<DataArray type="Float32" Name="temperature" format="ascii">